VARIABLES= "AXISX" "AXISY" "PID" "ID" "ID2" "DENSITY" "VELOCITYX" "VELOCITYY" "PRESSURE" "SMOOTHLENGTH" "PTSIZE" "IFLAG" "DRHOE" "Fex" "Fey" "EPSILON" "KAPPA" "RHOE" "PHI" "EX" "EY" "PHIext" "Eext" "ErrorPHI" "ErrorE" "NUMNEIGHBOR" 
ZONE T="ehdplanercase2 step 28" I= 1224, F=POINT
   -5.0000000000000000e-01    -5.0000000000000000e-01                          1                          1                          0     1.0000000000000000e+00     0.0000000000000000e+00     0.0000000000000000e+00     0.0000000000000000e+00     4.5454545454545456e-02     3.0303030303030304e-02                          1     0.0000000000000000e+00     0.0000000000000000e+00     0.0000000000000000e+00     3.0000000000000000e+00     2.0000000000000000e+00     0.0000000000000000e+00     1.0000000000000000e+00    -4.1068064526976780e-07     6.7292908114502525e-01     0.0000000000000000e+00     0.0000000000000000e+00     0.0000000000000000e+00     0.0000000000000000e+00                         15 
   -4.6969696969696972e-01    -5.0000000000000000e-01                          1                          2                          0     1.0000000000000000e+00     0.0000000000000000e+00     0.0000000000000000e+00     0.0000000000000000e+00     4.5454545454545456e-02     3.0303030303030304e-02                          1     0.0000000000000000e+00     0.0000000000000000e+00     0.0000000000000000e+00     3.0000000000000000e+00     2.0000000000000000e+00     0.0000000000000000e+00     1.0000000000000000e+00    -9.5415246311639497e-07     6.7292878453284222e-01     0.0000000000000000e+00     0.0000000000000000e+00     0.0000000000000000e+00     0.0000000000000000e+00                         15 
   -4.3939393939393939e-01    -5.0000000000000000e-01                          1                          3                          0     1.0000000000000000e+00     0.0000000000000000e+00     0.0000000000000000e+00     0.0000000000000000e+00     4.5454545454545456e-02     3.0303030303030304e-02                          1     0.0000000000000000e+00     0.0000000000000000e+00     0.0000000000000000e+00     3.0000000000000000e+00     2.0000000000000000e+00     0.0000000000000000e+00     1.0000000000000000e+00    -9.5833073969523470e-07     6.7292834148964009e-01     0.0000000000000000e+00     0.0000000000000000e+00     0.0000000000000000e+00     0.0000000000000000e+00                         15 
   -4.0909090909090906e-01    -5.0000000000000000e-01                          1                          4                          0     1.0000000000000000e+00     0.0000000000000000e+00     0.0000000000000000e+00     0.0000000000000000e+00     4.5454545454545456e-02     3.0303030303030304e-02                          1     0.0000000000000000e+00     0.0000000000000000e+00     0.0000000000000000e+00     3.0000000000000000e+00     2.0000000000000000e+00     0.0000000000000000e+00     1.0000000000000000e+00    -6.6148974346932782e-07     6.7292792545652313e-01     0.0000000000000000e+00     0.0000000000000000e+00     0.0000000000000000e+00     0.0000000000000000e+00                         15 
   -3.7878787878787878e-01    -5.0000000000000000e-01                          1                          5                          0     1.0000000000000000e+00     0.0000000000000000e+00     0.0000000000000000e+00     0.0000000000000000e+00     4.5454545454545456e-02     3.0303030303030304e-02                          1     0.0000000000000000e+00     0.0000000000000000e+00     0.0000000000000000e+00     3.0000000000000000e+00     2.0000000000000000e+00     0.0000000000000000e+00     1.0000000000000000e+00    -3.8036604646194399e-07     6.7292761746035068e-01     0.0000000000000000e+00     0.0000000000000000e+00     0.0000000000000000e+00     0.0000000000000000e+00                         15 
   -3.4848484848484851e-01    -5.0000000000000000e-01                          1                          6                          0     1.0000000000000000e+00     0.0000000000000000e+00     0.0000000000000000e+00     0.0000000000000000e+00     4.5454545454545456e-02     3.0303030303030304e-02                          1     0.0000000000000000e+00     0.0000000000000000e+00     0.0000000000000000e+00     3.0000000000000000e+00     2.0000000000000000e+00     0.0000000000000000e+00     1.0000000000000000e+00    -2.1791177572208659e-07     6.7292741206499318e-01     0.0000000000000000e+00     0.0000000000000000e+00     0.0000000000000000e+00     0.0000000000000000e+00                         15 
   -3.1818181818181818e-01    -5.0000000000000000e-01                          1                          7                          0     1.0000000000000000e+00     0.0000000000000000e+00     0.0000000000000000e+00     0.0000000000000000e+00     4.5454545454545456e-02     3.0303030303030304e-02                          1     0.0000000000000000e+00     0.0000000000000000e+00     0.0000000000000000e+00     3.0000000000000000e+00     2.0000000000000000e+00     0.0000000000000000e+00     1.0000000000000000e+00    -1.3860333172443755e-07     6.7292727461414359e-01     0.0000000000000000e+00     0.0000000000000000e+00     0.0000000000000000e+00     0.0000000000000000e+00                         15 
   -2.8787878787878785e-01    -5.0000000000000000e-01                          1                          8                          0     1.0000000000000000e+00     0.0000000000000000e+00     0.0000000000000000e+00     0.0000000000000000e+00     4.5454545454545456e-02     3.0303030303030304e-02                          1     0.0000000000000000e+00     0.0000000000000000e+00     0.0000000000000000e+00     3.0000000000000000e+00     2.0000000000000000e+00     0.0000000000000000e+00     1.0000000000000000e+00    -9.8307606739541233e-08     6.7292717688447634e-01     0.0000000000000000e+00     0.0000000000000000e+00     0.0000000000000000e+00     0.0000000000000000e+00                         15 
   -2.5757575757575757e-01    -5.0000000000000000e-01                          1                          9                          0     1.0000000000000000e+00     0.0000000000000000e+00     0.0000000000000000e+00     0.0000000000000000e+00     4.5454545454545456e-02     3.0303030303030304e-02                          1     0.0000000000000000e+00     0.0000000000000000e+00     0.0000000000000000e+00     3.0000000000000000e+00     2.0000000000000000e+00     0.0000000000000000e+00     1.0000000000000000e+00    -7.5643542705433528e-08     6.7292710257310895e-01     0.0000000000000000e+00     0.0000000000000000e+00     0.0000000000000000e+00     0.0000000000000000e+00                         15 
   -2.2727272727272729e-01    -5.0000000000000000e-01                          1                         10                          0     1.0000000000000000e+00     0.0000000000000000e+00     0.0000000000000000e+00     0.0000000000000000e+00     4.5454545454545456e-02     3.0303030303030304e-02                          1     0.0000000000000000e+00     0.0000000000000000e+00     0.0000000000000000e+00     3.0000000000000000e+00     2.0000000000000000e+00     0.0000000000000000e+00     1.0000000000000000e+00    -6.1422152210449665e-08     6.7292704297507466e-01     0.0000000000000000e+00     0.0000000000000000e+00     0.0000000000000000e+00     0.0000000000000000e+00                         15 
   -1.9696969696969696e-01    -5.0000000000000000e-01                          1                         11                          0     1.0000000000000000e+00     0.0000000000000000e+00     0.0000000000000000e+00     0.0000000000000000e+00     4.5454545454545456e-02     3.0303030303030304e-02                          1     0.0000000000000000e+00     0.0000000000000000e+00     0.0000000000000000e+00     3.0000000000000000e+00     2.0000000000000000e+00     0.0000000000000000e+00     1.0000000000000000e+00    -5.0965547217838530e-08     6.7292699353576546e-01     0.0000000000000000e+00     0.0000000000000000e+00     0.0000000000000000e+00     0.0000000000000000e+00                         15 
   -1.6666666666666663e-01    -5.0000000000000000e-01                          1                         12                          0     1.0000000000000000e+00     0.0000000000000000e+00     0.0000000000000000e+00     0.0000000000000000e+00     4.5454545454545456e-02     3.0303030303030304e-02                          1     0.0000000000000000e+00     0.0000000000000000e+00     0.0000000000000000e+00     3.0000000000000000e+00     2.0000000000000000e+00     0.0000000000000000e+00     1.0000000000000000e+00    -4.2074641389501986e-08     6.7292695208525832e-01     0.0000000000000000e+00     0.0000000000000000e+00     0.0000000000000000e+00     0.0000000000000000e+00                         15 
   -1.3636363636363635e-01    -5.0000000000000000e-01                          1                         13                          0     1.0000000000000000e+00     0.0000000000000000e+00     0.0000000000000000e+00     0.0000000000000000e+00     4.5454545454545456e-02     3.0303030303030304e-02                          1     0.0000000000000000e+00     0.0000000000000000e+00     0.0000000000000000e+00     3.0000000000000000e+00     2.0000000000000000e+00     0.0000000000000000e+00     1.0000000000000000e+00    -3.4129746262758958e-08     6.7292691773555913e-01     0.0000000000000000e+00     0.0000000000000000e+00     0.0000000000000000e+00     0.0000000000000000e+00                         15 
   -1.0606060606060608e-01    -5.0000000000000000e-01                          1                         14                          0     1.0000000000000000e+00     0.0000000000000000e+00     0.0000000000000000e+00     0.0000000000000000e+00     4.5454545454545456e-02     3.0303030303030304e-02                          1     0.0000000000000000e+00     0.0000000000000000e+00     0.0000000000000000e+00     3.0000000000000000e+00     2.0000000000000000e+00     0.0000000000000000e+00     1.0000000000000000e+00    -2.7090877317460624e-08     6.7292689006712902e-01     0.0000000000000000e+00     0.0000000000000000e+00     0.0000000000000000e+00     0.0000000000000000e+00                         15 
   -7.5757575757575746e-02    -5.0000000000000000e-01                          1                         15                          0     1.0000000000000000e+00     0.0000000000000000e+00     0.0000000000000000e+00     0.0000000000000000e+00     4.5454545454545456e-02     3.0303030303030304e-02                          1     0.0000000000000000e+00     0.0000000000000000e+00     0.0000000000000000e+00     3.0000000000000000e+00     2.0000000000000000e+00     0.0000000000000000e+00     1.0000000000000000e+00    -2.0632558374098598e-08     6.7292686869362828e-01     0.0000000000000000e+00     0.0000000000000000e+00     0.0000000000000000e+00     0.0000000000000000e+00                         15 
   -4.5454545454545414e-02    -5.0000000000000000e-01                          1                         16                          0     1.0000000000000000e+00     0.0000000000000000e+00     0.0000000000000000e+00     0.0000000000000000e+00     4.5454545454545456e-02     3.0303030303030304e-02                          1     0.0000000000000000e+00     0.0000000000000000e+00     0.0000000000000000e+00     3.0000000000000000e+00     2.0000000000000000e+00     0.0000000000000000e+00     1.0000000000000000e+00    -1.3894357560546190e-08     6.7292685337339186e-01     0.0000000000000000e+00     0.0000000000000000e+00     0.0000000000000000e+00     0.0000000000000000e+00                         15 
   -1.5151515151515138e-02    -5.0000000000000000e-01                          1                         17                          0     1.0000000000000000e+00     0.0000000000000000e+00     0.0000000000000000e+00     0.0000000000000000e+00     4.5454545454545456e-02     3.0303030303030304e-02                          1     0.0000000000000000e+00     0.0000000000000000e+00     0.0000000000000000e+00     3.0000000000000000e+00     2.0000000000000000e+00     0.0000000000000000e+00     1.0000000000000000e+00    -6.2565079599060781e-09     6.7292684435494776e-01     0.0000000000000000e+00     0.0000000000000000e+00     0.0000000000000000e+00     0.0000000000000000e+00                         15 
    1.5151515151515138e-02    -5.0000000000000000e-01                          1                         18                          0     1.0000000000000000e+00     0.0000000000000000e+00     0.0000000000000000e+00     0.0000000000000000e+00     4.5454545454545456e-02     3.0303030303030304e-02                          1     0.0000000000000000e+00     0.0000000000000000e+00     0.0000000000000000e+00     3.0000000000000000e+00     2.0000000000000000e+00     0.0000000000000000e+00     1.0000000000000000e+00     1.7434652096771648e-09     6.7292684220283205e-01     0.0000000000000000e+00     0.0000000000000000e+00     0.0000000000000000e+00     0.0000000000000000e+00                         15 
    4.5454545454545414e-02    -5.0000000000000000e-01                          1                         19                          0     1.0000000000000000e+00     0.0000000000000000e+00     0.0000000000000000e+00     0.0000000000000000e+00     4.5454545454545456e-02     3.0303030303030304e-02                          1     0.0000000000000000e+00     0.0000000000000000e+00     0.0000000000000000e+00     3.0000000000000000e+00     2.0000000000000000e+00     0.0000000000000000e+00     1.0000000000000000e+00     9.0400275157984341e-09     6.7292684706436545e-01     0.0000000000000000e+00     0.0000000000000000e+00     0.0000000000000000e+00     0.0000000000000000e+00                         15 
    7.5757575757575801e-02    -5.0000000000000000e-01                          1                         20                          0     1.0000000000000000e+00     0.0000000000000000e+00     0.0000000000000000e+00     0.0000000000000000e+00     4.5454545454545456e-02     3.0303030303030304e-02                          1     0.0000000000000000e+00     0.0000000000000000e+00     0.0000000000000000e+00     3.0000000000000000e+00     2.0000000000000000e+00     0.0000000000000000e+00     1.0000000000000000e+00     1.5734076092412788e-08     6.7292685845970901e-01     0.0000000000000000e+00     0.0000000000000000e+00     0.0000000000000000e+00     0.0000000000000000e+00                         15 
    1.0606060606060608e-01    -5.0000000000000000e-01                          1                         21                          0     1.0000000000000000e+00     0.0000000000000000e+00     0.0000000000000000e+00     0.0000000000000000e+00     4.5454545454545456e-02     3.0303030303030304e-02                          1     0.0000000000000000e+00     0.0000000000000000e+00     0.0000000000000000e+00     3.0000000000000000e+00     2.0000000000000000e+00     0.0000000000000000e+00     1.0000000000000000e+00     2.3112821404321637e-08     6.7292687611305313e-01     0.0000000000000000e+00     0.0000000000000000e+00     0.0000000000000000e+00     0.0000000000000000e+00                         15 
    1.3636363636363635e-01    -5.0000000000000000e-01                          1                         22                          0     1.0000000000000000e+00     0.0000000000000000e+00     0.0000000000000000e+00     0.0000000000000000e+00     4.5454545454545456e-02     3.0303030303030304e-02                          1     0.0000000000000000e+00     0.0000000000000000e+00     0.0000000000000000e+00     3.0000000000000000e+00     2.0000000000000000e+00     0.0000000000000000e+00     1.0000000000000000e+00     3.1615152198120633e-08     6.7292690057656457e-01     0.0000000000000000e+00     0.0000000000000000e+00     0.0000000000000000e+00     0.0000000000000000e+00                         15 
    1.6666666666666674e-01    -5.0000000000000000e-01                          1                         23                          0     1.0000000000000000e+00     0.0000000000000000e+00     0.0000000000000000e+00     0.0000000000000000e+00     4.5454545454545456e-02     3.0303030303030304e-02                          1     0.0000000000000000e+00     0.0000000000000000e+00     0.0000000000000000e+00     3.0000000000000000e+00     2.0000000000000000e+00     0.0000000000000000e+00     1.0000000000000000e+00     4.0244797310362228e-08     6.7292693257995440e-01     0.0000000000000000e+00     0.0000000000000000e+00     0.0000000000000000e+00     0.0000000000000000e+00                         15 
    1.9696969696969702e-01    -5.0000000000000000e-01                          1                         24                          0     1.0000000000000000e+00     0.0000000000000000e+00     0.0000000000000000e+00     0.0000000000000000e+00     4.5454545454545456e-02     3.0303030303030304e-02                          1     0.0000000000000000e+00     0.0000000000000000e+00     0.0000000000000000e+00     3.0000000000000000e+00     2.0000000000000000e+00     0.0000000000000000e+00     1.0000000000000000e+00     4.8888625962621622e-08     6.7292697235992038e-01     0.0000000000000000e+00     0.0000000000000000e+00     0.0000000000000000e+00     0.0000000000000000e+00                         15 
    2.2727272727272729e-01    -5.0000000000000000e-01                          1                         25                          0     1.0000000000000000e+00     0.0000000000000000e+00     0.0000000000000000e+00     0.0000000000000000e+00     4.5454545454545456e-02     3.0303030303030304e-02                          1     0.0000000000000000e+00     0.0000000000000000e+00     0.0000000000000000e+00     3.0000000000000000e+00     2.0000000000000000e+00     0.0000000000000000e+00     1.0000000000000000e+00     5.9691250501584690e-08     6.7292702055488951e-01     0.0000000000000000e+00     0.0000000000000000e+00     0.0000000000000000e+00     0.0000000000000000e+00                         15 
    2.5757575757575757e-01    -5.0000000000000000e-01                          1                         26                          0     1.0000000000000000e+00     0.0000000000000000e+00     0.0000000000000000e+00     0.0000000000000000e+00     4.5454545454545456e-02     3.0303030303030304e-02                          1     0.0000000000000000e+00     0.0000000000000000e+00     0.0000000000000000e+00     3.0000000000000000e+00     2.0000000000000000e+00     0.0000000000000000e+00     1.0000000000000000e+00     7.5435679507016189e-08     6.7292707963640030e-01     0.0000000000000000e+00     0.0000000000000000e+00     0.0000000000000000e+00     0.0000000000000000e+00                         15 
    2.8787878787878785e-01    -5.0000000000000000e-01                          1                         27                          0     1.0000000000000000e+00     0.0000000000000000e+00     0.0000000000000000e+00     0.0000000000000000e+00     4.5454545454545456e-02     3.0303030303030304e-02                          1     0.0000000000000000e+00     0.0000000000000000e+00     0.0000000000000000e+00     3.0000000000000000e+00     2.0000000000000000e+00     0.0000000000000000e+00     1.0000000000000000e+00     9.9493196521892573e-08     6.7292715440192974e-01     0.0000000000000000e+00     0.0000000000000000e+00     0.0000000000000000e+00     0.0000000000000000e+00                         15 
    3.1818181818181823e-01    -5.0000000000000000e-01                          1                         28                          0     1.0000000000000000e+00     0.0000000000000000e+00     0.0000000000000000e+00     0.0000000000000000e+00     4.5454545454545456e-02     3.0303030303030304e-02                          1     0.0000000000000000e+00     0.0000000000000000e+00     0.0000000000000000e+00     3.0000000000000000e+00     2.0000000000000000e+00     0.0000000000000000e+00     1.0000000000000000e+00     1.4073856671942986e-07     6.7292725327275438e-01     0.0000000000000000e+00     0.0000000000000000e+00     0.0000000000000000e+00     0.0000000000000000e+00                         15 
    3.4848484848484851e-01    -5.0000000000000000e-01                          1                         29                          0     1.0000000000000000e+00     0.0000000000000000e+00     0.0000000000000000e+00     0.0000000000000000e+00     4.5454545454545456e-02     3.0303030303030304e-02                          1     0.0000000000000000e+00     0.0000000000000000e+00     0.0000000000000000e+00     3.0000000000000000e+00     2.0000000000000000e+00     0.0000000000000000e+00     1.0000000000000000e+00     2.2170683722954117e-07     6.7292739271475310e-01     0.0000000000000000e+00     0.0000000000000000e+00     0.0000000000000000e+00     0.0000000000000000e+00                         15 
    3.7878787878787878e-01    -5.0000000000000000e-01                          1                         30                          0     1.0000000000000000e+00     0.0000000000000000e+00     0.0000000000000000e+00     0.0000000000000000e+00     4.5454545454545456e-02     3.0303030303030304e-02                          1     0.0000000000000000e+00     0.0000000000000000e+00     0.0000000000000000e+00     3.0000000000000000e+00     2.0000000000000000e+00     0.0000000000000000e+00     1.0000000000000000e+00     3.8548853361980065e-07     6.7292760167621657e-01     0.0000000000000000e+00     0.0000000000000000e+00     0.0000000000000000e+00     0.0000000000000000e+00                         15 
    4.0909090909090917e-01    -5.0000000000000000e-01                          1                         31                          0     1.0000000000000000e+00     0.0000000000000000e+00     0.0000000000000000e+00     0.0000000000000000e+00     4.5454545454545456e-02     3.0303030303030304e-02                          1     0.0000000000000000e+00     0.0000000000000000e+00     0.0000000000000000e+00     3.0000000000000000e+00     2.0000000000000000e+00     0.0000000000000000e+00     1.0000000000000000e+00     6.6525040503604368e-07     6.7292791422751619e-01     0.0000000000000000e+00     0.0000000000000000e+00     0.0000000000000000e+00     0.0000000000000000e+00                         15 
    4.3939393939393945e-01    -5.0000000000000000e-01                          1                         32                          0     1.0000000000000000e+00     0.0000000000000000e+00     0.0000000000000000e+00     0.0000000000000000e+00     4.5454545454545456e-02     3.0303030303030304e-02                          1     0.0000000000000000e+00     0.0000000000000000e+00     0.0000000000000000e+00     3.0000000000000000e+00     2.0000000000000000e+00     0.0000000000000000e+00     1.0000000000000000e+00     9.6008385440171618e-07     6.7292833391004203e-01     0.0000000000000000e+00     0.0000000000000000e+00     0.0000000000000000e+00     0.0000000000000000e+00                         15 
    4.6969696969696972e-01    -5.0000000000000000e-01                          1                         33                          0     1.0000000000000000e+00     0.0000000000000000e+00     0.0000000000000000e+00     0.0000000000000000e+00     4.5454545454545456e-02     3.0303030303030304e-02                          1     0.0000000000000000e+00     0.0000000000000000e+00     0.0000000000000000e+00     3.0000000000000000e+00     2.0000000000000000e+00     0.0000000000000000e+00     1.0000000000000000e+00     9.5717577667402237e-07     6.7292877948148566e-01     0.0000000000000000e+00     0.0000000000000000e+00     0.0000000000000000e+00     0.0000000000000000e+00                         15 
    5.0000000000000000e-01    -5.0000000000000000e-01                          1                         34                          0     1.0000000000000000e+00     0.0000000000000000e+00     0.0000000000000000e+00     0.0000000000000000e+00     4.5454545454545456e-02     3.0303030303030304e-02                          1     0.0000000000000000e+00     0.0000000000000000e+00     0.0000000000000000e+00     3.0000000000000000e+00     2.0000000000000000e+00     0.0000000000000000e+00     1.0000000000000000e+00     4.1650997792100533e-07     6.7292907920618084e-01     0.0000000000000000e+00     0.0000000000000000e+00     0.0000000000000000e+00     0.0000000000000000e+00                         15 
   -5.0000000000000000e-01    -4.6969696969696972e-01                          2                         35                          1     1.0000000000000000e+00     0.0000000000000000e+00     0.0000000000000000e+00     0.0000000000000000e+00     4.5454545454545456e-02     3.0303030303030304e-02                          1     0.0000000000000000e+00     1.7300768753319409e-04     9.3238334642069823e-05     3.0104433223506368e+00     2.0069622149004251e+00     1.1374634656946547e-06     9.7958877987396220e-01    -5.5499364174686907e-07     6.7298339301995636e-01     9.7979797979797978e-01     6.6666666666666663e-01     2.1351332451280403e-04    -9.4750895299346993e-03                         26 
   -4.6969696969696972e-01    -4.6969696969696972e-01                          2                         36                          2     1.0000000000000000e+00     0.0000000000000000e+00     0.0000000000000000e+00     0.0000000000000000e+00     4.5454545454545456e-02     3.0303030303030304e-02                          1     0.0000000000000000e+00     2.6877958440743778e-04    -5.7749835242511248e-05     3.0103491756221397e+00     2.0068994504147604e+00    -1.2020472111712310e-06     9.7958885577148958e-01    -1.2021354616798254e-06     6.7298293425652655e-01     9.7979797979797978e-01     6.6666666666666663e-01     2.1343586208788512e-04    -9.4744013847898323e-03                         26 
   -4.3939393939393939e-01    -4.6969696969696972e-01                          2                         37                          3     1.0000000000000000e+00     0.0000000000000000e+00     0.0000000000000000e+00     0.0000000000000000e+00     4.5454545454545456e-02     3.0303030303030304e-02                          1     0.0000000000000000e+00     1.1020101555358480e-04    -3.2731436200214304e-05     3.0103212687562473e+00     2.0068808458374989e+00     2.3910219845713065e-07     9.7958892848644497e-01    -1.0456233064318301e-06     6.7298231273994991e-01     9.7979797979797978e-01     6.6666666666666663e-01     2.1336164785512590e-04    -9.4734691099249702e-03                         27 
   -4.0909090909090906e-01    -4.6969696969696972e-01                          2                         38                          4     1.0000000000000000e+00     0.0000000000000000e+00     0.0000000000000000e+00     0.0000000000000000e+00     4.5454545454545456e-02     3.0303030303030304e-02                          1     0.0000000000000000e+00     1.4449978490963876e-05    -2.2943298650848532e-06     3.0103212687562051e+00     2.0068808458374705e+00     5.1277658007220506e-07     9.7958896339317902e-01    -6.0612892723069145e-07     6.7298180370850902e-01     9.7979797979797978e-01     6.6666666666666663e-01     2.1332602139456647e-04    -9.4727055627636947e-03                         26 
   -3.7878787878787878e-01    -4.6969696969696972e-01                          2                         39                          5     1.0000000000000000e+00     0.0000000000000000e+00     0.0000000000000000e+00     0.0000000000000000e+00     4.5454545454545456e-02     3.0303030303030304e-02                          1     0.0000000000000000e+00     1.0422362397631029e-13    -1.7457954127927838e-07     3.0103212687562069e+00     2.0068808458374714e+00    -2.5941211038993384e-07     9.7958897751932417e-01    -3.1285409450867211e-07     6.7298147437883293e-01     9.7979797979797978e-01     6.6666666666666663e-01     2.1331160398874172e-04    -9.4722115682495112e-03                         25 
   -3.4848484848484851e-01    -4.6969696969696972e-01                          2                         40                          6     1.0000000000000000e+00     0.0000000000000000e+00     0.0000000000000000e+00     0.0000000000000000e+00     4.5454545454545456e-02     3.0303030303030304e-02                          1     0.0000000000000000e+00     5.2529754559313784e-14    -1.7447617919379362e-07     3.0103212687562051e+00     2.0068808458374705e+00    -2.5925860175357585e-07     9.7958898470537448e-01    -1.7953532872823149e-07     6.7298127151829668e-01     9.7979797979797978e-01     6.6666666666666663e-01     2.1330426977239636e-04    -9.4719072774451796e-03                         26 
   -3.1818181818181818e-01    -4.6969696969696972e-01                          2                         41                          7     1.0000000000000000e+00     0.0000000000000000e+00     0.0000000000000000e+00     0.0000000000000000e+00     4.5454545454545456e-02     3.0303030303030304e-02                          1     0.0000000000000000e+00     4.4811052044877429e-15    -2.6379297320552769e-08     3.0103212687562033e+00     2.0068808458374696e+00    -3.9197677978441980e-08     9.7958898914072412e-01    -1.1819284273217801e-07     6.7298113822587657e-01     9.7979797979797978e-01     6.6666666666666663e-01     2.1329974297223941e-04    -9.4717073388148609e-03                         27 
   -2.8787878787878785e-01    -4.6969696969696972e-01                          2                         42                          8     1.0000000000000000e+00     0.0000000000000000e+00     0.0000000000000000e+00     0.0000000000000000e+00     4.5454545454545456e-02     3.0303030303030304e-02                          1     0.0000000000000000e+00     2.2726365437854194e-14    -2.2194997092465488e-07     3.0103212687562051e+00     2.0068808458374705e+00    -3.2980122846582027e-07     9.7958899214719841e-01    -8.5470291313239832e-08     6.7298104299711170e-01     9.7979797979797978e-01     6.6666666666666663e-01     2.1329667450886713e-04    -9.4715644956675504e-03                         26 