VARIABLES= "AXISX" "AXISY" "PID" "ID" "ID2" "DENSITY" "VELOCITYX" "VELOCITYY" "PRESSURE" "SMOOTHLENGTH" "PTSIZE" "IFLAG" "DRHOE" "Fex" "Fey" "EPSILON" "KAPPA" "RHOE" "PHI" "EX" "EY" "PHIext" "Eext" "ErrorPHI" "ErrorE" "NUMNEIGHBOR" 
ZONE T="ehdplanercase2 step 51" I= 1224, F=POINT
   -5.0000000000000000e-01    -5.0000000000000000e-01                          1                          1                          0     1.0000000000000000e+00     0.0000000000000000e+00     0.0000000000000000e+00     0.0000000000000000e+00     4.5454545454545456e-02     3.0303030303030304e-02                          1     0.0000000000000000e+00     0.0000000000000000e+00     0.0000000000000000e+00     3.0000000000000000e+00     2.0000000000000000e+00     0.0000000000000000e+00     1.0000000000000000e+00    -4.1068066282678128e-07     6.7292911021005986e-01     0.0000000000000000e+00     0.0000000000000000e+00     0.0000000000000000e+00     0.0000000000000000e+00                         15 
   -4.6969696969696972e-01    -5.0000000000000000e-01                          1                          2                          0     1.0000000000000000e+00     0.0000000000000000e+00     0.0000000000000000e+00     0.0000000000000000e+00     4.5454545454545456e-02     3.0303030303030304e-02                          1     0.0000000000000000e+00     0.0000000000000000e+00     0.0000000000000000e+00     3.0000000000000000e+00     2.0000000000000000e+00     0.0000000000000000e+00     1.0000000000000000e+00    -9.5415249960680791e-07     6.7292881359787893e-01     0.0000000000000000e+00     0.0000000000000000e+00     0.0000000000000000e+00     0.0000000000000000e+00                         15 
   -4.3939393939393939e-01    -5.0000000000000000e-01                          1                          3                          0     1.0000000000000000e+00     0.0000000000000000e+00     0.0000000000000000e+00     0.0000000000000000e+00     4.5454545454545456e-02     3.0303030303030304e-02                          1     0.0000000000000000e+00     0.0000000000000000e+00     0.0000000000000000e+00     3.0000000000000000e+00     2.0000000000000000e+00     0.0000000000000000e+00     1.0000000000000000e+00    -9.5833076480935946e-07     6.7292837055467225e-01     0.0000000000000000e+00     0.0000000000000000e+00     0.0000000000000000e+00     0.0000000000000000e+00                         15 
   -4.0909090909090906e-01    -5.0000000000000000e-01                          1                          4                          0     1.0000000000000000e+00     0.0000000000000000e+00     0.0000000000000000e+00     0.0000000000000000e+00     4.5454545454545456e-02     3.0303030303030304e-02                          1     0.0000000000000000e+00     0.0000000000000000e+00     0.0000000000000000e+00     3.0000000000000000e+00     2.0000000000000000e+00     0.0000000000000000e+00     1.0000000000000000e+00    -6.6148974459363817e-07     6.7292795452154486e-01     0.0000000000000000e+00     0.0000000000000000e+00     0.0000000000000000e+00     0.0000000000000000e+00                         15 
   -3.7878787878787878e-01    -5.0000000000000000e-01                          1                          5                          0     1.0000000000000000e+00     0.0000000000000000e+00     0.0000000000000000e+00     0.0000000000000000e+00     4.5454545454545456e-02     3.0303030303030304e-02                          1     0.0000000000000000e+00     0.0000000000000000e+00     0.0000000000000000e+00     3.0000000000000000e+00     2.0000000000000000e+00     0.0000000000000000e+00     1.0000000000000000e+00    -3.8036603282505484e-07     6.7292764652537196e-01     0.0000000000000000e+00     0.0000000000000000e+00     0.0000000000000000e+00     0.0000000000000000e+00                         15 
   -3.4848484848484851e-01    -5.0000000000000000e-01                          1                          6                          0     1.0000000000000000e+00     0.0000000000000000e+00     0.0000000000000000e+00     0.0000000000000000e+00     4.5454545454545456e-02     3.0303030303030304e-02                          1     0.0000000000000000e+00     0.0000000000000000e+00     0.0000000000000000e+00     3.0000000000000000e+00     2.0000000000000000e+00     0.0000000000000000e+00     1.0000000000000000e+00    -2.1791175219293063e-07     6.7292744113003156e-01     0.0000000000000000e+00     0.0000000000000000e+00     0.0000000000000000e+00     0.0000000000000000e+00                         15 
   -3.1818181818181818e-01    -5.0000000000000000e-01                          1                          7                          0     1.0000000000000000e+00     0.0000000000000000e+00     0.0000000000000000e+00     0.0000000000000000e+00     4.5454545454545456e-02     3.0303030303030304e-02                          1     0.0000000000000000e+00     0.0000000000000000e+00     0.0000000000000000e+00     3.0000000000000000e+00     2.0000000000000000e+00     0.0000000000000000e+00     1.0000000000000000e+00    -1.3860329940002752e-07     6.7292730367920095e-01     0.0000000000000000e+00     0.0000000000000000e+00     0.0000000000000000e+00     0.0000000000000000e+00                         15 
   -2.8787878787878785e-01    -5.0000000000000000e-01                          1                          8                          0     1.0000000000000000e+00     0.0000000000000000e+00     0.0000000000000000e+00     0.0000000000000000e+00     4.5454545454545456e-02     3.0303030303030304e-02                          1     0.0000000000000000e+00     0.0000000000000000e+00     0.0000000000000000e+00     3.0000000000000000e+00     2.0000000000000000e+00     0.0000000000000000e+00     1.0000000000000000e+00    -9.8307571161279111e-08     6.7292720594955113e-01     0.0000000000000000e+00     0.0000000000000000e+00     0.0000000000000000e+00     0.0000000000000000e+00                         15 
   -2.5757575757575757e-01    -5.0000000000000000e-01                          1                          9                          0     1.0000000000000000e+00     0.0000000000000000e+00     0.0000000000000000e+00     0.0000000000000000e+00     4.5454545454545456e-02     3.0303030303030304e-02                          1     0.0000000000000000e+00     0.0000000000000000e+00     0.0000000000000000e+00     3.0000000000000000e+00     2.0000000000000000e+00     0.0000000000000000e+00     1.0000000000000000e+00    -7.5643506797953126e-08     6.7292713163820506e-01     0.0000000000000000e+00     0.0000000000000000e+00     0.0000000000000000e+00     0.0000000000000000e+00                         15 
   -2.2727272727272729e-01    -5.0000000000000000e-01                          1                         10                          0     1.0000000000000000e+00     0.0000000000000000e+00     0.0000000000000000e+00     0.0000000000000000e+00     4.5454545454545456e-02     3.0303030303030304e-02                          1     0.0000000000000000e+00     0.0000000000000000e+00     0.0000000000000000e+00     3.0000000000000000e+00     2.0000000000000000e+00     0.0000000000000000e+00     1.0000000000000000e+00    -6.1422116407506389e-08     6.7292707204019309e-01     0.0000000000000000e+00     0.0000000000000000e+00     0.0000000000000000e+00     0.0000000000000000e+00                         15 
   -1.9696969696969696e-01    -5.0000000000000000e-01                          1                         11                          0     1.0000000000000000e+00     0.0000000000000000e+00     0.0000000000000000e+00     0.0000000000000000e+00     4.5454545454545456e-02     3.0303030303030304e-02                          1     0.0000000000000000e+00     0.0000000000000000e+00     0.0000000000000000e+00     3.0000000000000000e+00     2.0000000000000000e+00     0.0000000000000000e+00     1.0000000000000000e+00    -5.0965515869089297e-08     6.7292702260090742e-01     0.0000000000000000e+00     0.0000000000000000e+00     0.0000000000000000e+00     0.0000000000000000e+00                         15 
   -1.6666666666666663e-01    -5.0000000000000000e-01                          1                         12                          0     1.0000000000000000e+00     0.0000000000000000e+00     0.0000000000000000e+00     0.0000000000000000e+00     4.5454545454545456e-02     3.0303030303030304e-02                          1     0.0000000000000000e+00     0.0000000000000000e+00     0.0000000000000000e+00     3.0000000000000000e+00     2.0000000000000000e+00     0.0000000000000000e+00     1.0000000000000000e+00    -4.2074618299060237e-08     6.7292698115043492e-01     0.0000000000000000e+00     0.0000000000000000e+00     0.0000000000000000e+00     0.0000000000000000e+00                         15 
   -1.3636363636363635e-01    -5.0000000000000000e-01                          1                         13                          0     1.0000000000000000e+00     0.0000000000000000e+00     0.0000000000000000e+00     0.0000000000000000e+00     4.5454545454545456e-02     3.0303030303030304e-02                          1     0.0000000000000000e+00     0.0000000000000000e+00     0.0000000000000000e+00     3.0000000000000000e+00     2.0000000000000000e+00     0.0000000000000000e+00     1.0000000000000000e+00    -3.4129723543762246e-08     6.7292694680077647e-01     0.0000000000000000e+00     0.0000000000000000e+00     0.0000000000000000e+00     0.0000000000000000e+00                         15 
   -1.0606060606060608e-01    -5.0000000000000000e-01                          1                         14                          0     1.0000000000000000e+00     0.0000000000000000e+00     0.0000000000000000e+00     0.0000000000000000e+00     4.5454545454545456e-02     3.0303030303030304e-02                          1     0.0000000000000000e+00     0.0000000000000000e+00     0.0000000000000000e+00     3.0000000000000000e+00     2.0000000000000000e+00     0.0000000000000000e+00     1.0000000000000000e+00    -2.7090846609550182e-08     6.7292691913236735e-01     0.0000000000000000e+00     0.0000000000000000e+00     0.0000000000000000e+00     0.0000000000000000e+00                         15 
   -7.5757575757575746e-02    -5.0000000000000000e-01                          1                         15                          0     1.0000000000000000e+00     0.0000000000000000e+00     0.0000000000000000e+00     0.0000000000000000e+00     4.5454545454545456e-02     3.0303030303030304e-02                          1     0.0000000000000000e+00     0.0000000000000000e+00     0.0000000000000000e+00     3.0000000000000000e+00     2.0000000000000000e+00     0.0000000000000000e+00     1.0000000000000000e+00    -2.0632532618844829e-08     6.7292689775886672e-01     0.0000000000000000e+00     0.0000000000000000e+00     0.0000000000000000e+00     0.0000000000000000e+00                         15 
   -4.5454545454545414e-02    -5.0000000000000000e-01                          1                         16                          0     1.0000000000000000e+00     0.0000000000000000e+00     0.0000000000000000e+00     0.0000000000000000e+00     4.5454545454545456e-02     3.0303030303030304e-02                          1     0.0000000000000000e+00     0.0000000000000000e+00     0.0000000000000000e+00     3.0000000000000000e+00     2.0000000000000000e+00     0.0000000000000000e+00     1.0000000000000000e+00    -1.3894351806165573e-08     6.7292688243864007e-01     0.0000000000000000e+00     0.0000000000000000e+00     0.0000000000000000e+00     0.0000000000000000e+00                         15 
   -1.5151515151515138e-02    -5.0000000000000000e-01                          1                         17                          0     1.0000000000000000e+00     0.0000000000000000e+00     0.0000000000000000e+00     0.0000000000000000e+00     4.5454545454545456e-02     3.0303030303030304e-02                          1     0.0000000000000000e+00     0.0000000000000000e+00     0.0000000000000000e+00     3.0000000000000000e+00     2.0000000000000000e+00     0.0000000000000000e+00     1.0000000000000000e+00    -6.2565118957808695e-09     6.7292687342022217e-01     0.0000000000000000e+00     0.0000000000000000e+00     0.0000000000000000e+00     0.0000000000000000e+00                         15 
    1.5151515151515138e-02    -5.0000000000000000e-01                          1                         18                          0     1.0000000000000000e+00     0.0000000000000000e+00     0.0000000000000000e+00     0.0000000000000000e+00     4.5454545454545456e-02     3.0303030303030304e-02                          1     0.0000000000000000e+00     0.0000000000000000e+00     0.0000000000000000e+00     3.0000000000000000e+00     2.0000000000000000e+00     0.0000000000000000e+00     1.0000000000000000e+00     1.7434666722085545e-09     6.7292687126811701e-01     0.0000000000000000e+00     0.0000000000000000e+00     0.0000000000000000e+00     0.0000000000000000e+00                         15 
    4.5454545454545414e-02    -5.0000000000000000e-01                          1                         19                          0     1.0000000000000000e+00     0.0000000000000000e+00     0.0000000000000000e+00     0.0000000000000000e+00     4.5454545454545456e-02     3.0303030303030304e-02                          1     0.0000000000000000e+00     0.0000000000000000e+00     0.0000000000000000e+00     3.0000000000000000e+00     2.0000000000000000e+00     0.0000000000000000e+00     1.0000000000000000e+00     9.0400280586927749e-09     6.7292687612963453e-01     0.0000000000000000e+00     0.0000000000000000e+00     0.0000000000000000e+00     0.0000000000000000e+00                         15 
    7.5757575757575801e-02    -5.0000000000000000e-01                          1                         20                          0     1.0000000000000000e+00     0.0000000000000000e+00     0.0000000000000000e+00     0.0000000000000000e+00     4.5454545454545456e-02     3.0303030303030304e-02                          1     0.0000000000000000e+00     0.0000000000000000e+00     0.0000000000000000e+00     3.0000000000000000e+00     2.0000000000000000e+00     0.0000000000000000e+00     1.0000000000000000e+00     1.5734063606068873e-08     6.7292688752496399e-01     0.0000000000000000e+00     0.0000000000000000e+00     0.0000000000000000e+00     0.0000000000000000e+00                         15 
    1.0606060606060608e-01    -5.0000000000000000e-01                          1                         21                          0     1.0000000000000000e+00     0.0000000000000000e+00     0.0000000000000000e+00     0.0000000000000000e+00     4.5454545454545456e-02     3.0303030303030304e-02                          1     0.0000000000000000e+00     0.0000000000000000e+00     0.0000000000000000e+00     3.0000000000000000e+00     2.0000000000000000e+00     0.0000000000000000e+00     1.0000000000000000e+00     2.3112802152534881e-08     6.7292690517830522e-01     0.0000000000000000e+00     0.0000000000000000e+00     0.0000000000000000e+00     0.0000000000000000e+00                         15 
    1.3636363636363635e-01    -5.0000000000000000e-01                          1                         22                          0     1.0000000000000000e+00     0.0000000000000000e+00     0.0000000000000000e+00     0.0000000000000000e+00     4.5454545454545456e-02     3.0303030303030304e-02                          1     0.0000000000000000e+00     0.0000000000000000e+00     0.0000000000000000e+00     3.0000000000000000e+00     2.0000000000000000e+00     0.0000000000000000e+00     1.0000000000000000e+00     3.1615138602713030e-08     6.7292692964179812e-01     0.0000000000000000e+00     0.0000000000000000e+00     0.0000000000000000e+00     0.0000000000000000e+00                         15 
    1.6666666666666674e-01    -5.0000000000000000e-01                          1                         23                          0     1.0000000000000000e+00     0.0000000000000000e+00     0.0000000000000000e+00     0.0000000000000000e+00     4.5454545454545456e-02     3.0303030303030304e-02                          1     0.0000000000000000e+00     0.0000000000000000e+00     0.0000000000000000e+00     3.0000000000000000e+00     2.0000000000000000e+00     0.0000000000000000e+00     1.0000000000000000e+00     4.0244782122231868e-08     6.7292696164514598e-01     0.0000000000000000e+00     0.0000000000000000e+00     0.0000000000000000e+00     0.0000000000000000e+00                         15 
    1.9696969696969702e-01    -5.0000000000000000e-01                          1                         24                          0     1.0000000000000000e+00     0.0000000000000000e+00     0.0000000000000000e+00     0.0000000000000000e+00     4.5454545454545456e-02     3.0303030303030304e-02                          1     0.0000000000000000e+00     0.0000000000000000e+00     0.0000000000000000e+00     3.0000000000000000e+00     2.0000000000000000e+00     0.0000000000000000e+00     1.0000000000000000e+00     4.8888597905792366e-08     6.7292700142507411e-01     0.0000000000000000e+00     0.0000000000000000e+00     0.0000000000000000e+00     0.0000000000000000e+00                         15 
    2.2727272727272729e-01    -5.0000000000000000e-01                          1                         25                          0     1.0000000000000000e+00     0.0000000000000000e+00     0.0000000000000000e+00     0.0000000000000000e+00     4.5454545454545456e-02     3.0303030303030304e-02                          1     0.0000000000000000e+00     0.0000000000000000e+00     0.0000000000000000e+00     3.0000000000000000e+00     2.0000000000000000e+00     0.0000000000000000e+00     1.0000000000000000e+00     5.9691211830891093e-08     6.7292704962001748e-01     0.0000000000000000e+00     0.0000000000000000e+00     0.0000000000000000e+00     0.0000000000000000e+00                         15 
    2.5757575757575757e-01    -5.0000000000000000e-01                          1                         26                          0     1.0000000000000000e+00     0.0000000000000000e+00     0.0000000000000000e+00     0.0000000000000000e+00     4.5454545454545456e-02     3.0303030303030304e-02                          1     0.0000000000000000e+00     0.0000000000000000e+00     0.0000000000000000e+00     3.0000000000000000e+00     2.0000000000000000e+00     0.0000000000000000e+00     1.0000000000000000e+00     7.5435631572633050e-08     6.7292710870151040e-01     0.0000000000000000e+00     0.0000000000000000e+00     0.0000000000000000e+00     0.0000000000000000e+00                         15 
    2.8787878787878785e-01    -5.0000000000000000e-01                          1                         27                          0     1.0000000000000000e+00     0.0000000000000000e+00     0.0000000000000000e+00     0.0000000000000000e+00     4.5454545454545456e-02     3.0303030303030304e-02                          1     0.0000000000000000e+00     0.0000000000000000e+00     0.0000000000000000e+00     3.0000000000000000e+00     2.0000000000000000e+00     0.0000000000000000e+00     1.0000000000000000e+00     9.9493145035350946e-08     6.7292718346703595e-01     0.0000000000000000e+00     0.0000000000000000e+00     0.0000000000000000e+00     0.0000000000000000e+00                         15 
    3.1818181818181823e-01    -5.0000000000000000e-01                          1                         28                          0     1.0000000000000000e+00     0.0000000000000000e+00     0.0000000000000000e+00     0.0000000000000000e+00     4.5454545454545456e-02     3.0303030303030304e-02                          1     0.0000000000000000e+00     0.0000000000000000e+00     0.0000000000000000e+00     3.0000000000000000e+00     2.0000000000000000e+00     0.0000000000000000e+00     1.0000000000000000e+00     1.4073852557263694e-07     6.7292728233785870e-01     0.0000000000000000e+00     0.0000000000000000e+00     0.0000000000000000e+00     0.0000000000000000e+00                         15 
    3.4848484848484851e-01    -5.0000000000000000e-01                          1                         29                          0     1.0000000000000000e+00     0.0000000000000000e+00     0.0000000000000000e+00     0.0000000000000000e+00     4.5454545454545456e-02     3.0303030303030304e-02                          1     0.0000000000000000e+00     0.0000000000000000e+00     0.0000000000000000e+00     3.0000000000000000e+00     2.0000000000000000e+00     0.0000000000000000e+00     1.0000000000000000e+00     2.2170681442865781e-07     6.7292742177983766e-01     0.0000000000000000e+00     0.0000000000000000e+00     0.0000000000000000e+00     0.0000000000000000e+00                         15 
    3.7878787878787878e-01    -5.0000000000000000e-01                          1                         30                          0     1.0000000000000000e+00     0.0000000000000000e+00     0.0000000000000000e+00     0.0000000000000000e+00     4.5454545454545456e-02     3.0303030303030304e-02                          1     0.0000000000000000e+00     0.0000000000000000e+00     0.0000000000000000e+00     3.0000000000000000e+00     2.0000000000000000e+00     0.0000000000000000e+00     1.0000000000000000e+00     3.8548852733965110e-07     6.7292763074126716e-01     0.0000000000000000e+00     0.0000000000000000e+00     0.0000000000000000e+00     0.0000000000000000e+00                         15 
    4.0909090909090917e-01    -5.0000000000000000e-01                          1                         31                          0     1.0000000000000000e+00     0.0000000000000000e+00     0.0000000000000000e+00     0.0000000000000000e+00     4.5454545454545456e-02     3.0303030303030304e-02                          1     0.0000000000000000e+00     0.0000000000000000e+00     0.0000000000000000e+00     3.0000000000000000e+00     2.0000000000000000e+00     0.0000000000000000e+00     1.0000000000000000e+00     6.6525040893245485e-07     6.7292794329254546e-01     0.0000000000000000e+00     0.0000000000000000e+00     0.0000000000000000e+00     0.0000000000000000e+00                         15 
    4.3939393939393945e-01    -5.0000000000000000e-01                          1                         32                          0     1.0000000000000000e+00     0.0000000000000000e+00     0.0000000000000000e+00     0.0000000000000000e+00     4.5454545454545456e-02     3.0303030303030304e-02                          1     0.0000000000000000e+00     0.0000000000000000e+00     0.0000000000000000e+00     3.0000000000000000e+00     2.0000000000000000e+00     0.0000000000000000e+00     1.0000000000000000e+00     9.6008387217964687e-07     6.7292836297507286e-01     0.0000000000000000e+00     0.0000000000000000e+00     0.0000000000000000e+00     0.0000000000000000e+00                         15 
    4.6969696969696972e-01    -5.0000000000000000e-01                          1                         33                          0     1.0000000000000000e+00     0.0000000000000000e+00     0.0000000000000000e+00     0.0000000000000000e+00     4.5454545454545456e-02     3.0303030303030304e-02                          1     0.0000000000000000e+00     0.0000000000000000e+00     0.0000000000000000e+00     3.0000000000000000e+00     2.0000000000000000e+00     0.0000000000000000e+00     1.0000000000000000e+00     9.5717580461541605e-07     6.7292880854652171e-01     0.0000000000000000e+00     0.0000000000000000e+00     0.0000000000000000e+00     0.0000000000000000e+00                         15 
    5.0000000000000000e-01    -5.0000000000000000e-01                          1                         34                          0     1.0000000000000000e+00     0.0000000000000000e+00     0.0000000000000000e+00     0.0000000000000000e+00     4.5454545454545456e-02     3.0303030303030304e-02                          1     0.0000000000000000e+00     0.0000000000000000e+00     0.0000000000000000e+00     3.0000000000000000e+00     2.0000000000000000e+00     0.0000000000000000e+00     1.0000000000000000e+00     4.1650999126137804e-07     6.7292910827121521e-01     0.0000000000000000e+00     0.0000000000000000e+00     0.0000000000000000e+00     0.0000000000000000e+00                         15 
   -5.0000000000000000e-01    -4.6969696969696972e-01                          2                         35                          1     1.0000000000000000e+00     0.0000000000000000e+00     0.0000000000000000e+00     0.0000000000000000e+00     4.5454545454545456e-02     3.0303030303030304e-02                          1     0.0000000000000000e+00     1.7300769617063910e-04     9.3238338823826083e-05     3.0104433223506368e+00     2.0069622149004251e+00     1.1374627909704893e-06     9.7958877941504430e-01    -5.5499364877593673e-07     6.7298340981937377e-01     9.7979797979797978e-01     6.6666666666666663e-01     2.1351379289291650e-04    -9.4751147290608184e-03                         26 
   -4.6969696969696972e-01    -4.6969696969696972e-01                          2                         36                          2     1.0000000000000000e+00     0.0000000000000000e+00     0.0000000000000000e+00     0.0000000000000000e+00     4.5454545454545456e-02     3.0303030303030304e-02                          1     0.0000000000000000e+00     2.6877959782630292e-04    -5.7749838018919732e-05     3.0103491756221397e+00     2.0068994504147604e+00    -1.2020470825380158e-06     9.7958885531257323e-01    -1.2021354755501948e-06     6.7298295105591865e-01     9.7979797979797978e-01     6.6666666666666663e-01     2.1343633046644328e-04    -9.4744265838779818e-03                         26 
   -4.3939393939393939e-01    -4.6969696969696972e-01                          2                         37                          3     1.0000000000000000e+00     0.0000000000000000e+00     0.0000000000000000e+00     0.0000000000000000e+00     4.5454545454545456e-02     3.0303030303030304e-02                          1     0.0000000000000000e+00     1.1020102105538149e-04    -3.2731437501979796e-05     3.0103212687562473e+00     2.0068808458374989e+00     2.3910269827953634e-07     9.7958892802752984e-01    -1.0456233140965555e-06     6.7298232953930581e-01     9.7979797979797978e-01     6.6666666666666663e-01     2.1336211623246282e-04    -9.4734943089587187e-03                         27 
   -4.0909090909090906e-01    -4.6969696969696972e-01                          2                         38                          4     1.0000000000000000e+00     0.0000000000000000e+00     0.0000000000000000e+00     0.0000000000000000e+00     4.5454545454545456e-02     3.0303030303030304e-02                          1     0.0000000000000000e+00     1.4449979212380508e-05    -2.2943294552293507e-06     3.0103212687562051e+00     2.0068808458374705e+00     5.1277737209143304e-07     9.7958896293426445e-01    -6.0612893853532636e-07     6.7298182050786193e-01     9.7979797979797978e-01     6.6666666666666663e-01     2.1332648977134827e-04    -9.4727307617930023e-03                         26 
   -3.7878787878787878e-01    -4.6969696969696972e-01                          2                         39                          5     1.0000000000000000e+00     0.0000000000000000e+00     0.0000000000000000e+00     0.0000000000000000e+00     4.5454545454545456e-02     3.0303030303030304e-02                          1     0.0000000000000000e+00     1.0422321676213276e-13    -1.7457866428784219e-07     3.0103212687562069e+00     2.0068808458374714e+00    -2.5941080077085399e-07     9.7958897706041004e-01    -3.1285409972805160e-07     6.7298149117822292e-01     9.7979797979797978e-01     6.6666666666666663e-01     2.1331207236496841e-04    -9.4722367673345520e-03                         25 
   -3.4848484848484851e-01    -4.6969696969696972e-01                          2                         40                          6     1.0000000000000000e+00     0.0000000000000000e+00     0.0000000000000000e+00     0.0000000000000000e+00     4.5454545454545456e-02     3.0303030303030304e-02                          1     0.0000000000000000e+00     5.2529965535029590e-14    -1.7447699417034948e-07     3.0103212687562051e+00     2.0068808458374705e+00    -2.5925980627616863e-07     9.7958898424645979e-01    -1.7953530721552232e-07     6.7298128831769988e-01     9.7979797979797978e-01     6.6666666666666663e-01     2.1330473814928919e-04    -9.4719324765499824e-03                         26 
   -3.1818181818181818e-01    -4.6969696969696972e-01                          2                         41                          7     1.0000000000000000e+00     0.0000000000000000e+00     0.0000000000000000e+00     0.0000000000000000e+00     4.5454545454545456e-02     3.0303030303030304e-02                          1     0.0000000000000000e+00     4.4813465072624057e-15    -2.6380674358321547e-08     3.0103212687562033e+00     2.0068808458374696e+00    -3.9199723175786794e-08     9.7958898868180877e-01    -1.1819283208578104e-07     6.7298115502527578e-01     9.7979797979797978e-01     6.6666666666666663e-01     2.1330021134979837e-04    -9.4717325379136685e-03                         27 
   -2.8787878787878785e-01    -4.6969696969696972e-01                          2                         42                          8     1.0000000000000000e+00     0.0000000000000000e+00     0.0000000000000000e+00     0.0000000000000000e+00     4.5454545454545456e-02     3.0303030303030304e-02                          1     0.0000000000000000e+00     2.2726398235446950e-14    -2.2195023594413273e-07     3.0103212687562051e+00     2.0068808458374705e+00    -3.2980161403239894e-07     9.7958899168828317e-01    -8.5470291664328834e-08     6.7298105979654366e-01     9.7979797979797978e-01     6.6666666666666663e-01     2.1329714288620405e-04    -9.4715896948156519e-03                         26 