VARIABLES= "AXISX" "AXISY" "PID" "ID" "ID2" "DENSITY" "VELOCITYX" "VELOCITYY" "PRESSURE" "SMOOTHLENGTH" "PTSIZE" "IFLAG" "DRHOE" "Fex" "Fey" "EPSILON" "KAPPA" "RHOE" "PHI" "EX" "EY" "PHIext" "Eext" "ErrorPHI" "ErrorE" "NUMNEIGHBOR" 
ZONE T="ehdplanercase2 step 30" I= 1224, F=POINT
   -5.0000000000000000e-01    -5.0000000000000000e-01                          1                          1                          0     1.0000000000000000e+00     0.0000000000000000e+00     0.0000000000000000e+00     0.0000000000000000e+00     4.5454545454545456e-02     3.0303030303030304e-02                          1     0.0000000000000000e+00     0.0000000000000000e+00     0.0000000000000000e+00     3.0000000000000000e+00     2.0000000000000000e+00     0.0000000000000000e+00     1.0000000000000000e+00    -4.1068066374215327e-07     6.7292910056764821e-01     0.0000000000000000e+00     0.0000000000000000e+00     0.0000000000000000e+00     0.0000000000000000e+00                         15 
   -4.6969696969696972e-01    -5.0000000000000000e-01                          1                          2                          0     1.0000000000000000e+00     0.0000000000000000e+00     0.0000000000000000e+00     0.0000000000000000e+00     4.5454545454545456e-02     3.0303030303030304e-02                          1     0.0000000000000000e+00     0.0000000000000000e+00     0.0000000000000000e+00     3.0000000000000000e+00     2.0000000000000000e+00     0.0000000000000000e+00     1.0000000000000000e+00    -9.5415249613783148e-07     6.7292880395546995e-01     0.0000000000000000e+00     0.0000000000000000e+00     0.0000000000000000e+00     0.0000000000000000e+00                         15 
   -4.3939393939393939e-01    -5.0000000000000000e-01                          1                          3                          0     1.0000000000000000e+00     0.0000000000000000e+00     0.0000000000000000e+00     0.0000000000000000e+00     4.5454545454545456e-02     3.0303030303030304e-02                          1     0.0000000000000000e+00     0.0000000000000000e+00     0.0000000000000000e+00     3.0000000000000000e+00     2.0000000000000000e+00     0.0000000000000000e+00     1.0000000000000000e+00    -9.5833076720055909e-07     6.7292836091227637e-01     0.0000000000000000e+00     0.0000000000000000e+00     0.0000000000000000e+00     0.0000000000000000e+00                         15 
   -4.0909090909090906e-01    -5.0000000000000000e-01                          1                          4                          0     1.0000000000000000e+00     0.0000000000000000e+00     0.0000000000000000e+00     0.0000000000000000e+00     4.5454545454545456e-02     3.0303030303030304e-02                          1     0.0000000000000000e+00     0.0000000000000000e+00     0.0000000000000000e+00     3.0000000000000000e+00     2.0000000000000000e+00     0.0000000000000000e+00     1.0000000000000000e+00    -6.6148975253257210e-07     6.7292794487916641e-01     0.0000000000000000e+00     0.0000000000000000e+00     0.0000000000000000e+00     0.0000000000000000e+00                         15 
   -3.7878787878787878e-01    -5.0000000000000000e-01                          1                          5                          0     1.0000000000000000e+00     0.0000000000000000e+00     0.0000000000000000e+00     0.0000000000000000e+00     4.5454545454545456e-02     3.0303030303030304e-02                          1     0.0000000000000000e+00     0.0000000000000000e+00     0.0000000000000000e+00     3.0000000000000000e+00     2.0000000000000000e+00     0.0000000000000000e+00     1.0000000000000000e+00    -3.8036604044907950e-07     6.7292763688299762e-01     0.0000000000000000e+00     0.0000000000000000e+00     0.0000000000000000e+00     0.0000000000000000e+00                         15 
   -3.4848484848484851e-01    -5.0000000000000000e-01                          1                          6                          0     1.0000000000000000e+00     0.0000000000000000e+00     0.0000000000000000e+00     0.0000000000000000e+00     4.5454545454545456e-02     3.0303030303030304e-02                          1     0.0000000000000000e+00     0.0000000000000000e+00     0.0000000000000000e+00     3.0000000000000000e+00     2.0000000000000000e+00     0.0000000000000000e+00     1.0000000000000000e+00    -2.1791175897967441e-07     6.7292743148764600e-01     0.0000000000000000e+00     0.0000000000000000e+00     0.0000000000000000e+00     0.0000000000000000e+00                         15 
   -3.1818181818181818e-01    -5.0000000000000000e-01                          1                          7                          0     1.0000000000000000e+00     0.0000000000000000e+00     0.0000000000000000e+00     0.0000000000000000e+00     4.5454545454545456e-02     3.0303030303030304e-02                          1     0.0000000000000000e+00     0.0000000000000000e+00     0.0000000000000000e+00     3.0000000000000000e+00     2.0000000000000000e+00     0.0000000000000000e+00     1.0000000000000000e+00    -1.3860330435020210e-07     6.7292729403679841e-01     0.0000000000000000e+00     0.0000000000000000e+00     0.0000000000000000e+00     0.0000000000000000e+00                         15 
   -2.8787878787878785e-01    -5.0000000000000000e-01                          1                          8                          0     1.0000000000000000e+00     0.0000000000000000e+00     0.0000000000000000e+00     0.0000000000000000e+00     4.5454545454545456e-02     3.0303030303030304e-02                          1     0.0000000000000000e+00     0.0000000000000000e+00     0.0000000000000000e+00     3.0000000000000000e+00     2.0000000000000000e+00     0.0000000000000000e+00     1.0000000000000000e+00    -9.8307574986301561e-08     6.7292719630713005e-01     0.0000000000000000e+00     0.0000000000000000e+00     0.0000000000000000e+00     0.0000000000000000e+00                         15 
   -2.5757575757575757e-01    -5.0000000000000000e-01                          1                          9                          0     1.0000000000000000e+00     0.0000000000000000e+00     0.0000000000000000e+00     0.0000000000000000e+00     4.5454545454545456e-02     3.0303030303030304e-02                          1     0.0000000000000000e+00     0.0000000000000000e+00     0.0000000000000000e+00     3.0000000000000000e+00     2.0000000000000000e+00     0.0000000000000000e+00     1.0000000000000000e+00    -7.5643514986515950e-08     6.7292712199576887e-01     0.0000000000000000e+00     0.0000000000000000e+00     0.0000000000000000e+00     0.0000000000000000e+00                         15 
   -2.2727272727272729e-01    -5.0000000000000000e-01                          1                         10                          0     1.0000000000000000e+00     0.0000000000000000e+00     0.0000000000000000e+00     0.0000000000000000e+00     4.5454545454545456e-02     3.0303030303030304e-02                          1     0.0000000000000000e+00     0.0000000000000000e+00     0.0000000000000000e+00     3.0000000000000000e+00     2.0000000000000000e+00     0.0000000000000000e+00     1.0000000000000000e+00    -6.1422128966188427e-08     6.7292706239774902e-01     0.0000000000000000e+00     0.0000000000000000e+00     0.0000000000000000e+00     0.0000000000000000e+00                         15 
   -1.9696969696969696e-01    -5.0000000000000000e-01                          1                         11                          0     1.0000000000000000e+00     0.0000000000000000e+00     0.0000000000000000e+00     0.0000000000000000e+00     4.5454545454545456e-02     3.0303030303030304e-02                          1     0.0000000000000000e+00     0.0000000000000000e+00     0.0000000000000000e+00     3.0000000000000000e+00     2.0000000000000000e+00     0.0000000000000000e+00     1.0000000000000000e+00    -5.0965527437186274e-08     6.7292701295845503e-01     0.0000000000000000e+00     0.0000000000000000e+00     0.0000000000000000e+00     0.0000000000000000e+00                         15 
   -1.6666666666666663e-01    -5.0000000000000000e-01                          1                         12                          0     1.0000000000000000e+00     0.0000000000000000e+00     0.0000000000000000e+00     0.0000000000000000e+00     4.5454545454545456e-02     3.0303030303030304e-02                          1     0.0000000000000000e+00     0.0000000000000000e+00     0.0000000000000000e+00     3.0000000000000000e+00     2.0000000000000000e+00     0.0000000000000000e+00     1.0000000000000000e+00    -4.2074626397772434e-08     6.7292697150796810e-01     0.0000000000000000e+00     0.0000000000000000e+00     0.0000000000000000e+00     0.0000000000000000e+00                         15 
   -1.3636363636363635e-01    -5.0000000000000000e-01                          1                         13                          0     1.0000000000000000e+00     0.0000000000000000e+00     0.0000000000000000e+00     0.0000000000000000e+00     4.5454545454545456e-02     3.0303030303030304e-02                          1     0.0000000000000000e+00     0.0000000000000000e+00     0.0000000000000000e+00     3.0000000000000000e+00     2.0000000000000000e+00     0.0000000000000000e+00     1.0000000000000000e+00    -3.4129728318077522e-08     6.7292693715829233e-01     0.0000000000000000e+00     0.0000000000000000e+00     0.0000000000000000e+00     0.0000000000000000e+00                         15 
   -1.0606060606060608e-01    -5.0000000000000000e-01                          1                         14                          0     1.0000000000000000e+00     0.0000000000000000e+00     0.0000000000000000e+00     0.0000000000000000e+00     4.5454545454545456e-02     3.0303030303030304e-02                          1     0.0000000000000000e+00     0.0000000000000000e+00     0.0000000000000000e+00     3.0000000000000000e+00     2.0000000000000000e+00     0.0000000000000000e+00     1.0000000000000000e+00    -2.7090848505016477e-08     6.7292690948986666e-01     0.0000000000000000e+00     0.0000000000000000e+00     0.0000000000000000e+00     0.0000000000000000e+00                         15 
   -7.5757575757575746e-02    -5.0000000000000000e-01                          1                         15                          0     1.0000000000000000e+00     0.0000000000000000e+00     0.0000000000000000e+00     0.0000000000000000e+00     4.5454545454545456e-02     3.0303030303030304e-02                          1     0.0000000000000000e+00     0.0000000000000000e+00     0.0000000000000000e+00     3.0000000000000000e+00     2.0000000000000000e+00     0.0000000000000000e+00     1.0000000000000000e+00    -2.0632531938581303e-08     6.7292688811635026e-01     0.0000000000000000e+00     0.0000000000000000e+00     0.0000000000000000e+00     0.0000000000000000e+00                         15 
   -4.5454545454545414e-02    -5.0000000000000000e-01                          1                         16                          0     1.0000000000000000e+00     0.0000000000000000e+00     0.0000000000000000e+00     0.0000000000000000e+00     4.5454545454545456e-02     3.0303030303030304e-02                          1     0.0000000000000000e+00     0.0000000000000000e+00     0.0000000000000000e+00     3.0000000000000000e+00     2.0000000000000000e+00     0.0000000000000000e+00     1.0000000000000000e+00    -1.3894350412054995e-08     6.7292687279610852e-01     0.0000000000000000e+00     0.0000000000000000e+00     0.0000000000000000e+00     0.0000000000000000e+00                         15 
   -1.5151515151515138e-02    -5.0000000000000000e-01                          1                         17                          0     1.0000000000000000e+00     0.0000000000000000e+00     0.0000000000000000e+00     0.0000000000000000e+00     4.5454545454545456e-02     3.0303030303030304e-02                          1     0.0000000000000000e+00     0.0000000000000000e+00     0.0000000000000000e+00     3.0000000000000000e+00     2.0000000000000000e+00     0.0000000000000000e+00     1.0000000000000000e+00    -6.2565146477577551e-09     6.7292686377767974e-01     0.0000000000000000e+00     0.0000000000000000e+00     0.0000000000000000e+00     0.0000000000000000e+00                         15 
    1.5151515151515138e-02    -5.0000000000000000e-01                          1                         18                          0     1.0000000000000000e+00     0.0000000000000000e+00     0.0000000000000000e+00     0.0000000000000000e+00     4.5454545454545456e-02     3.0303030303030304e-02                          1     0.0000000000000000e+00     0.0000000000000000e+00     0.0000000000000000e+00     3.0000000000000000e+00     2.0000000000000000e+00     0.0000000000000000e+00     1.0000000000000000e+00     1.7434570212644993e-09     6.7292686162557858e-01     0.0000000000000000e+00     0.0000000000000000e+00     0.0000000000000000e+00     0.0000000000000000e+00                         15 
    4.5454545454545414e-02    -5.0000000000000000e-01                          1                         19                          0     1.0000000000000000e+00     0.0000000000000000e+00     0.0000000000000000e+00     0.0000000000000000e+00     4.5454545454545456e-02     3.0303030303030304e-02                          1     0.0000000000000000e+00     0.0000000000000000e+00     0.0000000000000000e+00     3.0000000000000000e+00     2.0000000000000000e+00     0.0000000000000000e+00     1.0000000000000000e+00     9.0400155914595126e-09     6.7292686648711630e-01     0.0000000000000000e+00     0.0000000000000000e+00     0.0000000000000000e+00     0.0000000000000000e+00                         15 
    7.5757575757575801e-02    -5.0000000000000000e-01                          1                         20                          0     1.0000000000000000e+00     0.0000000000000000e+00     0.0000000000000000e+00     0.0000000000000000e+00     4.5454545454545456e-02     3.0303030303030304e-02                          1     0.0000000000000000e+00     0.0000000000000000e+00     0.0000000000000000e+00     3.0000000000000000e+00     2.0000000000000000e+00     0.0000000000000000e+00     1.0000000000000000e+00     1.5734055571041960e-08     6.7292687788246852e-01     0.0000000000000000e+00     0.0000000000000000e+00     0.0000000000000000e+00     0.0000000000000000e+00                         15 
    1.0606060606060608e-01    -5.0000000000000000e-01                          1                         21                          0     1.0000000000000000e+00     0.0000000000000000e+00     0.0000000000000000e+00     0.0000000000000000e+00     4.5454545454545456e-02     3.0303030303030304e-02                          1     0.0000000000000000e+00     0.0000000000000000e+00     0.0000000000000000e+00     3.0000000000000000e+00     2.0000000000000000e+00     0.0000000000000000e+00     1.0000000000000000e+00     2.3112800561601107e-08     6.7292689553582297e-01     0.0000000000000000e+00     0.0000000000000000e+00     0.0000000000000000e+00     0.0000000000000000e+00                         15 
    1.3636363636363635e-01    -5.0000000000000000e-01                          1                         22                          0     1.0000000000000000e+00     0.0000000000000000e+00     0.0000000000000000e+00     0.0000000000000000e+00     4.5454545454545456e-02     3.0303030303030304e-02                          1     0.0000000000000000e+00     0.0000000000000000e+00     0.0000000000000000e+00     3.0000000000000000e+00     2.0000000000000000e+00     0.0000000000000000e+00     1.0000000000000000e+00     3.1615138752258497e-08     6.7292691999932719e-01     0.0000000000000000e+00     0.0000000000000000e+00     0.0000000000000000e+00     0.0000000000000000e+00                         15 
    1.6666666666666674e-01    -5.0000000000000000e-01                          1                         23                          0     1.0000000000000000e+00     0.0000000000000000e+00     0.0000000000000000e+00     0.0000000000000000e+00     4.5454545454545456e-02     3.0303030303030304e-02                          1     0.0000000000000000e+00     0.0000000000000000e+00     0.0000000000000000e+00     3.0000000000000000e+00     2.0000000000000000e+00     0.0000000000000000e+00     1.0000000000000000e+00     4.0244789215197882e-08     6.7292695200269081e-01     0.0000000000000000e+00     0.0000000000000000e+00     0.0000000000000000e+00     0.0000000000000000e+00                         15 
    1.9696969696969702e-01    -5.0000000000000000e-01                          1                         24                          0     1.0000000000000000e+00     0.0000000000000000e+00     0.0000000000000000e+00     0.0000000000000000e+00     4.5454545454545456e-02     3.0303030303030304e-02                          1     0.0000000000000000e+00     0.0000000000000000e+00     0.0000000000000000e+00     3.0000000000000000e+00     2.0000000000000000e+00     0.0000000000000000e+00     1.0000000000000000e+00     4.8888617974150684e-08     6.7292699178262572e-01     0.0000000000000000e+00     0.0000000000000000e+00     0.0000000000000000e+00     0.0000000000000000e+00                         15 
    2.2727272727272729e-01    -5.0000000000000000e-01                          1                         25                          0     1.0000000000000000e+00     0.0000000000000000e+00     0.0000000000000000e+00     0.0000000000000000e+00     4.5454545454545456e-02     3.0303030303030304e-02                          1     0.0000000000000000e+00     0.0000000000000000e+00     0.0000000000000000e+00     3.0000000000000000e+00     2.0000000000000000e+00     0.0000000000000000e+00     1.0000000000000000e+00     5.9691236814800787e-08     6.7292703997757175e-01     0.0000000000000000e+00     0.0000000000000000e+00     0.0000000000000000e+00     0.0000000000000000e+00                         15 
    2.5757575757575757e-01    -5.0000000000000000e-01                          1                         26                          0     1.0000000000000000e+00     0.0000000000000000e+00     0.0000000000000000e+00     0.0000000000000000e+00     4.5454545454545456e-02     3.0303030303030304e-02                          1     0.0000000000000000e+00     0.0000000000000000e+00     0.0000000000000000e+00     3.0000000000000000e+00     2.0000000000000000e+00     0.0000000000000000e+00     1.0000000000000000e+00     7.5435660444337800e-08     6.7292709905907044e-01     0.0000000000000000e+00     0.0000000000000000e+00     0.0000000000000000e+00     0.0000000000000000e+00                         15 
    2.8787878787878785e-01    -5.0000000000000000e-01                          1                         27                          0     1.0000000000000000e+00     0.0000000000000000e+00     0.0000000000000000e+00     0.0000000000000000e+00     4.5454545454545456e-02     3.0303030303030304e-02                          1     0.0000000000000000e+00     0.0000000000000000e+00     0.0000000000000000e+00     3.0000000000000000e+00     2.0000000000000000e+00     0.0000000000000000e+00     1.0000000000000000e+00     9.9493179010468378e-08     6.7292717382459011e-01     0.0000000000000000e+00     0.0000000000000000e+00     0.0000000000000000e+00     0.0000000000000000e+00                         15 
    3.1818181818181823e-01    -5.0000000000000000e-01                          1                         28                          0     1.0000000000000000e+00     0.0000000000000000e+00     0.0000000000000000e+00     0.0000000000000000e+00     4.5454545454545456e-02     3.0303030303030304e-02                          1     0.0000000000000000e+00     0.0000000000000000e+00     0.0000000000000000e+00     3.0000000000000000e+00     2.0000000000000000e+00     0.0000000000000000e+00     1.0000000000000000e+00     1.4073855379199830e-07     6.7292727269539687e-01     0.0000000000000000e+00     0.0000000000000000e+00     0.0000000000000000e+00     0.0000000000000000e+00                         15 
    3.4848484848484851e-01    -5.0000000000000000e-01                          1                         29                          0     1.0000000000000000e+00     0.0000000000000000e+00     0.0000000000000000e+00     0.0000000000000000e+00     4.5454545454545456e-02     3.0303030303030304e-02                          1     0.0000000000000000e+00     0.0000000000000000e+00     0.0000000000000000e+00     3.0000000000000000e+00     2.0000000000000000e+00     0.0000000000000000e+00     1.0000000000000000e+00     2.2170682580117312e-07     6.7292741213737461e-01     0.0000000000000000e+00     0.0000000000000000e+00     0.0000000000000000e+00     0.0000000000000000e+00                         15 
    3.7878787878787878e-01    -5.0000000000000000e-01                          1                         30                          0     1.0000000000000000e+00     0.0000000000000000e+00     0.0000000000000000e+00     0.0000000000000000e+00     4.5454545454545456e-02     3.0303030303030304e-02                          1     0.0000000000000000e+00     0.0000000000000000e+00     0.0000000000000000e+00     3.0000000000000000e+00     2.0000000000000000e+00     0.0000000000000000e+00     1.0000000000000000e+00     3.8548852312324137e-07     6.7292762109882587e-01     0.0000000000000000e+00     0.0000000000000000e+00     0.0000000000000000e+00     0.0000000000000000e+00                         15 
    4.0909090909090917e-01    -5.0000000000000000e-01                          1                         31                          0     1.0000000000000000e+00     0.0000000000000000e+00     0.0000000000000000e+00     0.0000000000000000e+00     4.5454545454545456e-02     3.0303030303030304e-02                          1     0.0000000000000000e+00     0.0000000000000000e+00     0.0000000000000000e+00     3.0000000000000000e+00     2.0000000000000000e+00     0.0000000000000000e+00     1.0000000000000000e+00     6.6525040092652993e-07     6.7292793365012660e-01     0.0000000000000000e+00     0.0000000000000000e+00     0.0000000000000000e+00     0.0000000000000000e+00                         15 
    4.3939393939393945e-01    -5.0000000000000000e-01                          1                         32                          0     1.0000000000000000e+00     0.0000000000000000e+00     0.0000000000000000e+00     0.0000000000000000e+00     4.5454545454545456e-02     3.0303030303030304e-02                          1     0.0000000000000000e+00     0.0000000000000000e+00     0.0000000000000000e+00     3.0000000000000000e+00     2.0000000000000000e+00     0.0000000000000000e+00     1.0000000000000000e+00     9.6008386293459989e-07     6.7292835333265988e-01     0.0000000000000000e+00     0.0000000000000000e+00     0.0000000000000000e+00     0.0000000000000000e+00                         15 
    4.6969696969696972e-01    -5.0000000000000000e-01                          1                         33                          0     1.0000000000000000e+00     0.0000000000000000e+00     0.0000000000000000e+00     0.0000000000000000e+00     4.5454545454545456e-02     3.0303030303030304e-02                          1     0.0000000000000000e+00     0.0000000000000000e+00     0.0000000000000000e+00     3.0000000000000000e+00     2.0000000000000000e+00     0.0000000000000000e+00     1.0000000000000000e+00     9.5717579170924809e-07     6.7292879890410839e-01     0.0000000000000000e+00     0.0000000000000000e+00     0.0000000000000000e+00     0.0000000000000000e+00                         15 
    5.0000000000000000e-01    -5.0000000000000000e-01                          1                         34                          0     1.0000000000000000e+00     0.0000000000000000e+00     0.0000000000000000e+00     0.0000000000000000e+00     4.5454545454545456e-02     3.0303030303030304e-02                          1     0.0000000000000000e+00     0.0000000000000000e+00     0.0000000000000000e+00     3.0000000000000000e+00     2.0000000000000000e+00     0.0000000000000000e+00     1.0000000000000000e+00     4.1650998135654804e-07     6.7292909862880357e-01     0.0000000000000000e+00     0.0000000000000000e+00     0.0000000000000000e+00     0.0000000000000000e+00                         15 
   -5.0000000000000000e-01    -4.6969696969696972e-01                          2                         35                          1     1.0000000000000000e+00     0.0000000000000000e+00     0.0000000000000000e+00     0.0000000000000000e+00     4.5454545454545456e-02     3.0303030303030304e-02                          1     0.0000000000000000e+00     1.7300769330358572e-04     9.3238336806211302e-05     3.0104433223506368e+00     2.0069622149004251e+00     1.1374620794701862e-06     9.7958877956739376e-01    -5.5499365233634888e-07     6.7298340424309111e-01     9.7979797979797978e-01     6.6666666666666663e-01     2.1351363740218510e-04    -9.4751063646367761e-03                         26 
   -4.6969696969696972e-01    -4.6969696969696972e-01                          2                         36                          2     1.0000000000000000e+00     0.0000000000000000e+00     0.0000000000000000e+00     0.0000000000000000e+00     4.5454545454545456e-02     3.0303030303030304e-02                          1     0.0000000000000000e+00     2.6877959337215428e-04    -5.7749836464797979e-05     3.0103491756221397e+00     2.0068994504147604e+00    -1.2020461853251563e-06     9.7958885546492280e-01    -1.2021354863508958e-06     6.7298294547966697e-01     9.7979797979797978e-01     6.6666666666666663e-01     2.1343617497571188e-04    -9.4744182195005688e-03                         26 
   -4.3939393939393939e-01    -4.6969696969696972e-01                          2                         37                          3     1.0000000000000000e+00     0.0000000000000000e+00     0.0000000000000000e+00     0.0000000000000000e+00     4.5454545454545456e-02     3.0303030303030304e-02                          1     0.0000000000000000e+00     1.1020101922916694e-04    -3.2731436779063041e-05     3.0103212687562473e+00     2.0068808458374989e+00     2.3910296451101765e-07     9.7958892817987919e-01    -1.0456233067355330e-06     6.7298232396308733e-01     9.7979797979797978e-01     6.6666666666666663e-01     2.1336196074184244e-04    -9.4734859446310438e-03                         27 
   -4.0909090909090906e-01    -4.6969696969696972e-01                          2                         38                          4     1.0000000000000000e+00     0.0000000000000000e+00     0.0000000000000000e+00     0.0000000000000000e+00     4.5454545454545456e-02     3.0303030303030304e-02                          1     0.0000000000000000e+00     1.4449978972918088e-05    -2.2943292162580171e-06     3.0103212687562051e+00     2.0068808458374705e+00     5.1277766643931244e-07     9.7958896308661292e-01    -6.0612890345184277e-07     6.7298181493159981e-01     9.7979797979797978e-01     6.6666666666666663e-01     2.1332633428161607e-04    -9.4727223973998242e-03                         26 
   -3.7878787878787878e-01    -4.6969696969696972e-01                          2                         39                          5     1.0000000000000000e+00     0.0000000000000000e+00     0.0000000000000000e+00     0.0000000000000000e+00     4.5454545454545456e-02     3.0303030303030304e-02                          1     0.0000000000000000e+00     1.0422301500598719e-13    -1.7457822961016704e-07     3.0103212687562069e+00     2.0068808458374714e+00    -2.5941015702191095e-07     9.7958897721275784e-01    -3.1285409982670118e-07     6.7298148560191240e-01     9.7979797979797978e-01     6.6666666666666663e-01     2.1331191687601336e-04    -9.4722284028687653e-03                         25 
   -3.4848484848484851e-01    -4.6969696969696972e-01                          2                         40                          6     1.0000000000000000e+00     0.0000000000000000e+00     0.0000000000000000e+00     0.0000000000000000e+00     4.5454545454545456e-02     3.0303030303030304e-02                          1     0.0000000000000000e+00     5.2530198960916265e-14    -1.7447784200195918e-07     3.0103212687562051e+00     2.0068808458374705e+00    -2.5926106823892514e-07     9.7958898439880793e-01    -1.7953533405401468e-07     6.7298128274142077e-01     9.7979797979797978e-01     6.6666666666666663e-01     2.1330458265989005e-04    -9.4719241121312692e-03                         26 
   -3.1818181818181818e-01    -4.6969696969696972e-01                          2                         41                          7     1.0000000000000000e+00     0.0000000000000000e+00     0.0000000000000000e+00     0.0000000000000000e+00     4.5454545454545456e-02     3.0303030303030304e-02                          1     0.0000000000000000e+00     4.4811094921108293e-15    -2.6379325788281602e-08     3.0103212687562033e+00     2.0068808458374696e+00    -3.9197719625683192e-08     9.7958898883415768e-01    -1.1819282666694851e-07     6.7298114944900544e-01     9.7979797979797978e-01     6.6666666666666663e-01     2.1330005585962208e-04    -9.4717241735082780e-03                         27 
   -2.8787878787878785e-01    -4.6969696969696972e-01                          2                         42                          8     1.0000000000000000e+00     0.0000000000000000e+00     0.0000000000000000e+00     0.0000000000000000e+00     4.5454545454545456e-02     3.0303030303030304e-02                          1     0.0000000000000000e+00     2.2726124740530265e-14    -2.2194809002939758e-07     3.0103212687562051e+00     2.0068808458374705e+00    -3.2979842809477411e-07     9.7958899184063197e-01    -8.5470287775856629e-08     6.7298105422024046e-01     9.7979797979797978e-01     6.6666666666666663e-01     2.1329698739624980e-04    -9.4715813303607455e-03                         26 