VARIABLES= "AXISX" "AXISY" "PID" "ID" "ID2" "DENSITY" "VELOCITYX" "VELOCITYY" "PRESSURE" "SMOOTHLENGTH" "PTSIZE" "IFLAG" "DRHOE" "Fex" "Fey" "EPSILON" "KAPPA" "RHOE" "PHI" "EX" "EY" "PHIext" "Eext" "ErrorPHI" "ErrorE" "NUMNEIGHBOR" 
ZONE T="ehdplanercase2 step 75" I= 1224, F=POINT
   -5.0000000000000000e-01    -5.0000000000000000e-01                          1                          1                          0     1.0000000000000000e+00     0.0000000000000000e+00     0.0000000000000000e+00     0.0000000000000000e+00     4.5454545454545456e-02     3.0303030303030304e-02                          1     0.0000000000000000e+00     0.0000000000000000e+00     0.0000000000000000e+00     3.0000000000000000e+00     2.0000000000000000e+00     0.0000000000000000e+00     1.0000000000000000e+00    -4.1068066560276289e-07     6.7292911021016966e-01     0.0000000000000000e+00     0.0000000000000000e+00     0.0000000000000000e+00     0.0000000000000000e+00                         15 
   -4.6969696969696972e-01    -5.0000000000000000e-01                          1                          2                          0     1.0000000000000000e+00     0.0000000000000000e+00     0.0000000000000000e+00     0.0000000000000000e+00     4.5454545454545456e-02     3.0303030303030304e-02                          1     0.0000000000000000e+00     0.0000000000000000e+00     0.0000000000000000e+00     3.0000000000000000e+00     2.0000000000000000e+00     0.0000000000000000e+00     1.0000000000000000e+00    -9.5415250419822687e-07     6.7292881359798606e-01     0.0000000000000000e+00     0.0000000000000000e+00     0.0000000000000000e+00     0.0000000000000000e+00                         15 
   -4.3939393939393939e-01    -5.0000000000000000e-01                          1                          3                          0     1.0000000000000000e+00     0.0000000000000000e+00     0.0000000000000000e+00     0.0000000000000000e+00     4.5454545454545456e-02     3.0303030303030304e-02                          1     0.0000000000000000e+00     0.0000000000000000e+00     0.0000000000000000e+00     3.0000000000000000e+00     2.0000000000000000e+00     0.0000000000000000e+00     1.0000000000000000e+00    -9.5833077371064892e-07     6.7292837055478438e-01     0.0000000000000000e+00     0.0000000000000000e+00     0.0000000000000000e+00     0.0000000000000000e+00                         15 
   -4.0909090909090906e-01    -5.0000000000000000e-01                          1                          4                          0     1.0000000000000000e+00     0.0000000000000000e+00     0.0000000000000000e+00     0.0000000000000000e+00     4.5454545454545456e-02     3.0303030303030304e-02                          1     0.0000000000000000e+00     0.0000000000000000e+00     0.0000000000000000e+00     3.0000000000000000e+00     2.0000000000000000e+00     0.0000000000000000e+00     1.0000000000000000e+00    -6.6148975195026988e-07     6.7292795452166887e-01     0.0000000000000000e+00     0.0000000000000000e+00     0.0000000000000000e+00     0.0000000000000000e+00                         15 
   -3.7878787878787878e-01    -5.0000000000000000e-01                          1                          5                          0     1.0000000000000000e+00     0.0000000000000000e+00     0.0000000000000000e+00     0.0000000000000000e+00     4.5454545454545456e-02     3.0303030303030304e-02                          1     0.0000000000000000e+00     0.0000000000000000e+00     0.0000000000000000e+00     3.0000000000000000e+00     2.0000000000000000e+00     0.0000000000000000e+00     1.0000000000000000e+00    -3.8036603358675240e-07     6.7292764652549886e-01     0.0000000000000000e+00     0.0000000000000000e+00     0.0000000000000000e+00     0.0000000000000000e+00                         15 
   -3.4848484848484851e-01    -5.0000000000000000e-01                          1                          6                          0     1.0000000000000000e+00     0.0000000000000000e+00     0.0000000000000000e+00     0.0000000000000000e+00     4.5454545454545456e-02     3.0303030303030304e-02                          1     0.0000000000000000e+00     0.0000000000000000e+00     0.0000000000000000e+00     3.0000000000000000e+00     2.0000000000000000e+00     0.0000000000000000e+00     1.0000000000000000e+00    -2.1791175093208204e-07     6.7292744113015335e-01     0.0000000000000000e+00     0.0000000000000000e+00     0.0000000000000000e+00     0.0000000000000000e+00                         15 
   -3.1818181818181818e-01    -5.0000000000000000e-01                          1                          7                          0     1.0000000000000000e+00     0.0000000000000000e+00     0.0000000000000000e+00     0.0000000000000000e+00     4.5454545454545456e-02     3.0303030303030304e-02                          1     0.0000000000000000e+00     0.0000000000000000e+00     0.0000000000000000e+00     3.0000000000000000e+00     2.0000000000000000e+00     0.0000000000000000e+00     1.0000000000000000e+00    -1.3860329612990656e-07     6.7292730367931664e-01     0.0000000000000000e+00     0.0000000000000000e+00     0.0000000000000000e+00     0.0000000000000000e+00                         15 
   -2.8787878787878785e-01    -5.0000000000000000e-01                          1                          8                          0     1.0000000000000000e+00     0.0000000000000000e+00     0.0000000000000000e+00     0.0000000000000000e+00     4.5454545454545456e-02     3.0303030303030304e-02                          1     0.0000000000000000e+00     0.0000000000000000e+00     0.0000000000000000e+00     3.0000000000000000e+00     2.0000000000000000e+00     0.0000000000000000e+00     1.0000000000000000e+00    -9.8307567918830941e-08     6.7292720594965383e-01     0.0000000000000000e+00     0.0000000000000000e+00     0.0000000000000000e+00     0.0000000000000000e+00                         15 
   -2.5757575757575757e-01    -5.0000000000000000e-01                          1                          9                          0     1.0000000000000000e+00     0.0000000000000000e+00     0.0000000000000000e+00     0.0000000000000000e+00     4.5454545454545456e-02     3.0303030303030304e-02                          1     0.0000000000000000e+00     0.0000000000000000e+00     0.0000000000000000e+00     3.0000000000000000e+00     2.0000000000000000e+00     0.0000000000000000e+00     1.0000000000000000e+00    -7.5643513150061554e-08     6.7292713163830020e-01     0.0000000000000000e+00     0.0000000000000000e+00     0.0000000000000000e+00     0.0000000000000000e+00                         15 
   -2.2727272727272729e-01    -5.0000000000000000e-01                          1                         10                          0     1.0000000000000000e+00     0.0000000000000000e+00     0.0000000000000000e+00     0.0000000000000000e+00     4.5454545454545456e-02     3.0303030303030304e-02                          1     0.0000000000000000e+00     0.0000000000000000e+00     0.0000000000000000e+00     3.0000000000000000e+00     2.0000000000000000e+00     0.0000000000000000e+00     1.0000000000000000e+00    -6.1422128068503307e-08     6.7292707204029834e-01     0.0000000000000000e+00     0.0000000000000000e+00     0.0000000000000000e+00     0.0000000000000000e+00                         15 
   -1.9696969696969696e-01    -5.0000000000000000e-01                          1                         11                          0     1.0000000000000000e+00     0.0000000000000000e+00     0.0000000000000000e+00     0.0000000000000000e+00     4.5454545454545456e-02     3.0303030303030304e-02                          1     0.0000000000000000e+00     0.0000000000000000e+00     0.0000000000000000e+00     3.0000000000000000e+00     2.0000000000000000e+00     0.0000000000000000e+00     1.0000000000000000e+00    -5.0965524179320642e-08     6.7292702260102844e-01     0.0000000000000000e+00     0.0000000000000000e+00     0.0000000000000000e+00     0.0000000000000000e+00                         15 
   -1.6666666666666663e-01    -5.0000000000000000e-01                          1                         12                          0     1.0000000000000000e+00     0.0000000000000000e+00     0.0000000000000000e+00     0.0000000000000000e+00     4.5454545454545456e-02     3.0303030303030304e-02                          1     0.0000000000000000e+00     0.0000000000000000e+00     0.0000000000000000e+00     3.0000000000000000e+00     2.0000000000000000e+00     0.0000000000000000e+00     1.0000000000000000e+00    -4.2074617767301635e-08     6.7292698115056049e-01     0.0000000000000000e+00     0.0000000000000000e+00     0.0000000000000000e+00     0.0000000000000000e+00                         15 
   -1.3636363636363635e-01    -5.0000000000000000e-01                          1                         13                          0     1.0000000000000000e+00     0.0000000000000000e+00     0.0000000000000000e+00     0.0000000000000000e+00     4.5454545454545456e-02     3.0303030303030304e-02                          1     0.0000000000000000e+00     0.0000000000000000e+00     0.0000000000000000e+00     3.0000000000000000e+00     2.0000000000000000e+00     0.0000000000000000e+00     1.0000000000000000e+00    -3.4129711272859692e-08     6.7292694680088383e-01     0.0000000000000000e+00     0.0000000000000000e+00     0.0000000000000000e+00     0.0000000000000000e+00                         15 
   -1.0606060606060608e-01    -5.0000000000000000e-01                          1                         14                          0     1.0000000000000000e+00     0.0000000000000000e+00     0.0000000000000000e+00     0.0000000000000000e+00     4.5454545454545456e-02     3.0303030303030304e-02                          1     0.0000000000000000e+00     0.0000000000000000e+00     0.0000000000000000e+00     3.0000000000000000e+00     2.0000000000000000e+00     0.0000000000000000e+00     1.0000000000000000e+00    -2.7090835160485415e-08     6.7292691913244562e-01     0.0000000000000000e+00     0.0000000000000000e+00     0.0000000000000000e+00     0.0000000000000000e+00                         15 
   -7.5757575757575746e-02    -5.0000000000000000e-01                          1                         15                          0     1.0000000000000000e+00     0.0000000000000000e+00     0.0000000000000000e+00     0.0000000000000000e+00     4.5454545454545456e-02     3.0303030303030304e-02                          1     0.0000000000000000e+00     0.0000000000000000e+00     0.0000000000000000e+00     3.0000000000000000e+00     2.0000000000000000e+00     0.0000000000000000e+00     1.0000000000000000e+00    -2.0632533257096552e-08     6.7292689775893233e-01     0.0000000000000000e+00     0.0000000000000000e+00     0.0000000000000000e+00     0.0000000000000000e+00                         15 
   -4.5454545454545414e-02    -5.0000000000000000e-01                          1                         16                          0     1.0000000000000000e+00     0.0000000000000000e+00     0.0000000000000000e+00     0.0000000000000000e+00     4.5454545454545456e-02     3.0303030303030304e-02                          1     0.0000000000000000e+00     0.0000000000000000e+00     0.0000000000000000e+00     3.0000000000000000e+00     2.0000000000000000e+00     0.0000000000000000e+00     1.0000000000000000e+00    -1.3894360156946671e-08     6.7292688243871346e-01     0.0000000000000000e+00     0.0000000000000000e+00     0.0000000000000000e+00     0.0000000000000000e+00                         15 
   -1.5151515151515138e-02    -5.0000000000000000e-01                          1                         17                          0     1.0000000000000000e+00     0.0000000000000000e+00     0.0000000000000000e+00     0.0000000000000000e+00     4.5454545454545456e-02     3.0303030303030304e-02                          1     0.0000000000000000e+00     0.0000000000000000e+00     0.0000000000000000e+00     3.0000000000000000e+00     2.0000000000000000e+00     0.0000000000000000e+00     1.0000000000000000e+00    -6.2565197379892657e-09     6.7292687342030710e-01     0.0000000000000000e+00     0.0000000000000000e+00     0.0000000000000000e+00     0.0000000000000000e+00                         15 
    1.5151515151515138e-02    -5.0000000000000000e-01                          1                         18                          0     1.0000000000000000e+00     0.0000000000000000e+00     0.0000000000000000e+00     0.0000000000000000e+00     4.5454545454545456e-02     3.0303030303030304e-02                          1     0.0000000000000000e+00     0.0000000000000000e+00     0.0000000000000000e+00     3.0000000000000000e+00     2.0000000000000000e+00     0.0000000000000000e+00     1.0000000000000000e+00     1.7434648633978804e-09     6.7292687126820694e-01     0.0000000000000000e+00     0.0000000000000000e+00     0.0000000000000000e+00     0.0000000000000000e+00                         15 
    4.5454545454545414e-02    -5.0000000000000000e-01                          1                         19                          0     1.0000000000000000e+00     0.0000000000000000e+00     0.0000000000000000e+00     0.0000000000000000e+00     4.5454545454545456e-02     3.0303030303030304e-02                          1     0.0000000000000000e+00     0.0000000000000000e+00     0.0000000000000000e+00     3.0000000000000000e+00     2.0000000000000000e+00     0.0000000000000000e+00     1.0000000000000000e+00     9.0400303819541169e-09     6.7292687612972413e-01     0.0000000000000000e+00     0.0000000000000000e+00     0.0000000000000000e+00     0.0000000000000000e+00                         15 
    7.5757575757575801e-02    -5.0000000000000000e-01                          1                         20                          0     1.0000000000000000e+00     0.0000000000000000e+00     0.0000000000000000e+00     0.0000000000000000e+00     4.5454545454545456e-02     3.0303030303030304e-02                          1     0.0000000000000000e+00     0.0000000000000000e+00     0.0000000000000000e+00     3.0000000000000000e+00     2.0000000000000000e+00     0.0000000000000000e+00     1.0000000000000000e+00     1.5734065471565918e-08     6.7292688752505336e-01     0.0000000000000000e+00     0.0000000000000000e+00     0.0000000000000000e+00     0.0000000000000000e+00                         15 
    1.0606060606060608e-01    -5.0000000000000000e-01                          1                         21                          0     1.0000000000000000e+00     0.0000000000000000e+00     0.0000000000000000e+00     0.0000000000000000e+00     4.5454545454545456e-02     3.0303030303030304e-02                          1     0.0000000000000000e+00     0.0000000000000000e+00     0.0000000000000000e+00     3.0000000000000000e+00     2.0000000000000000e+00     0.0000000000000000e+00     1.0000000000000000e+00     2.3112804040856552e-08     6.7292690517839382e-01     0.0000000000000000e+00     0.0000000000000000e+00     0.0000000000000000e+00     0.0000000000000000e+00                         15 
    1.3636363636363635e-01    -5.0000000000000000e-01                          1                         22                          0     1.0000000000000000e+00     0.0000000000000000e+00     0.0000000000000000e+00     0.0000000000000000e+00     4.5454545454545456e-02     3.0303030303030304e-02                          1     0.0000000000000000e+00     0.0000000000000000e+00     0.0000000000000000e+00     3.0000000000000000e+00     2.0000000000000000e+00     0.0000000000000000e+00     1.0000000000000000e+00     3.1615138300425096e-08     6.7292692964188761e-01     0.0000000000000000e+00     0.0000000000000000e+00     0.0000000000000000e+00     0.0000000000000000e+00                         15 
    1.6666666666666674e-01    -5.0000000000000000e-01                          1                         23                          0     1.0000000000000000e+00     0.0000000000000000e+00     0.0000000000000000e+00     0.0000000000000000e+00     4.5454545454545456e-02     3.0303030303030304e-02                          1     0.0000000000000000e+00     0.0000000000000000e+00     0.0000000000000000e+00     3.0000000000000000e+00     2.0000000000000000e+00     0.0000000000000000e+00     1.0000000000000000e+00     4.0244779641733773e-08     6.7292696164524513e-01     0.0000000000000000e+00     0.0000000000000000e+00     0.0000000000000000e+00     0.0000000000000000e+00                         15 
    1.9696969696969702e-01    -5.0000000000000000e-01                          1                         24                          0     1.0000000000000000e+00     0.0000000000000000e+00     0.0000000000000000e+00     0.0000000000000000e+00     4.5454545454545456e-02     3.0303030303030304e-02                          1     0.0000000000000000e+00     0.0000000000000000e+00     0.0000000000000000e+00     3.0000000000000000e+00     2.0000000000000000e+00     0.0000000000000000e+00     1.0000000000000000e+00     4.8888599045161901e-08     6.7292700142518624e-01     0.0000000000000000e+00     0.0000000000000000e+00     0.0000000000000000e+00     0.0000000000000000e+00                         15 
    2.2727272727272729e-01    -5.0000000000000000e-01                          1                         25                          0     1.0000000000000000e+00     0.0000000000000000e+00     0.0000000000000000e+00     0.0000000000000000e+00     4.5454545454545456e-02     3.0303030303030304e-02                          1     0.0000000000000000e+00     0.0000000000000000e+00     0.0000000000000000e+00     3.0000000000000000e+00     2.0000000000000000e+00     0.0000000000000000e+00     1.0000000000000000e+00     5.9691222071884748e-08     6.7292704962013461e-01     0.0000000000000000e+00     0.0000000000000000e+00     0.0000000000000000e+00     0.0000000000000000e+00                         15 
    2.5757575757575757e-01    -5.0000000000000000e-01                          1                         26                          0     1.0000000000000000e+00     0.0000000000000000e+00     0.0000000000000000e+00     0.0000000000000000e+00     4.5454545454545456e-02     3.0303030303030304e-02                          1     0.0000000000000000e+00     0.0000000000000000e+00     0.0000000000000000e+00     3.0000000000000000e+00     2.0000000000000000e+00     0.0000000000000000e+00     1.0000000000000000e+00     7.5435652707993690e-08     6.7292710870161188e-01     0.0000000000000000e+00     0.0000000000000000e+00     0.0000000000000000e+00     0.0000000000000000e+00                         15 
    2.8787878787878785e-01    -5.0000000000000000e-01                          1                         27                          0     1.0000000000000000e+00     0.0000000000000000e+00     0.0000000000000000e+00     0.0000000000000000e+00     4.5454545454545456e-02     3.0303030303030304e-02                          1     0.0000000000000000e+00     0.0000000000000000e+00     0.0000000000000000e+00     3.0000000000000000e+00     2.0000000000000000e+00     0.0000000000000000e+00     1.0000000000000000e+00     9.9493162500311639e-08     6.7292718346710723e-01     0.0000000000000000e+00     0.0000000000000000e+00     0.0000000000000000e+00     0.0000000000000000e+00                         15 
    3.1818181818181823e-01    -5.0000000000000000e-01                          1                         28                          0     1.0000000000000000e+00     0.0000000000000000e+00     0.0000000000000000e+00     0.0000000000000000e+00     4.5454545454545456e-02     3.0303030303030304e-02                          1     0.0000000000000000e+00     0.0000000000000000e+00     0.0000000000000000e+00     3.0000000000000000e+00     2.0000000000000000e+00     0.0000000000000000e+00     1.0000000000000000e+00     1.4073852309539369e-07     6.7292728233792043e-01     0.0000000000000000e+00     0.0000000000000000e+00     0.0000000000000000e+00     0.0000000000000000e+00                         15 
    3.4848484848484851e-01    -5.0000000000000000e-01                          1                         29                          0     1.0000000000000000e+00     0.0000000000000000e+00     0.0000000000000000e+00     0.0000000000000000e+00     4.5454545454545456e-02     3.0303030303030304e-02                          1     0.0000000000000000e+00     0.0000000000000000e+00     0.0000000000000000e+00     3.0000000000000000e+00     2.0000000000000000e+00     0.0000000000000000e+00     1.0000000000000000e+00     2.2170680025973887e-07     6.7292742177992282e-01     0.0000000000000000e+00     0.0000000000000000e+00     0.0000000000000000e+00     0.0000000000000000e+00                         15 
    3.7878787878787878e-01    -5.0000000000000000e-01                          1                         30                          0     1.0000000000000000e+00     0.0000000000000000e+00     0.0000000000000000e+00     0.0000000000000000e+00     4.5454545454545456e-02     3.0303030303030304e-02                          1     0.0000000000000000e+00     0.0000000000000000e+00     0.0000000000000000e+00     3.0000000000000000e+00     2.0000000000000000e+00     0.0000000000000000e+00     1.0000000000000000e+00     3.8548851810785108e-07     6.7292763074138284e-01     0.0000000000000000e+00     0.0000000000000000e+00     0.0000000000000000e+00     0.0000000000000000e+00                         15 
    4.0909090909090917e-01    -5.0000000000000000e-01                          1                         31                          0     1.0000000000000000e+00     0.0000000000000000e+00     0.0000000000000000e+00     0.0000000000000000e+00     4.5454545454545456e-02     3.0303030303030304e-02                          1     0.0000000000000000e+00     0.0000000000000000e+00     0.0000000000000000e+00     3.0000000000000000e+00     2.0000000000000000e+00     0.0000000000000000e+00     1.0000000000000000e+00     6.6525041186824679e-07     6.7292794329267158e-01     0.0000000000000000e+00     0.0000000000000000e+00     0.0000000000000000e+00     0.0000000000000000e+00                         15 
    4.3939393939393945e-01    -5.0000000000000000e-01                          1                         32                          0     1.0000000000000000e+00     0.0000000000000000e+00     0.0000000000000000e+00     0.0000000000000000e+00     4.5454545454545456e-02     3.0303030303030304e-02                          1     0.0000000000000000e+00     0.0000000000000000e+00     0.0000000000000000e+00     3.0000000000000000e+00     2.0000000000000000e+00     0.0000000000000000e+00     1.0000000000000000e+00     9.6008387974664620e-07     6.7292836297518821e-01     0.0000000000000000e+00     0.0000000000000000e+00     0.0000000000000000e+00     0.0000000000000000e+00                         15 
    4.6969696969696972e-01    -5.0000000000000000e-01                          1                         33                          0     1.0000000000000000e+00     0.0000000000000000e+00     0.0000000000000000e+00     0.0000000000000000e+00     4.5454545454545456e-02     3.0303030303030304e-02                          1     0.0000000000000000e+00     0.0000000000000000e+00     0.0000000000000000e+00     3.0000000000000000e+00     2.0000000000000000e+00     0.0000000000000000e+00     1.0000000000000000e+00     9.5717580647115745e-07     6.7292880854662862e-01     0.0000000000000000e+00     0.0000000000000000e+00     0.0000000000000000e+00     0.0000000000000000e+00                         15 
    5.0000000000000000e-01    -5.0000000000000000e-01                          1                         34                          0     1.0000000000000000e+00     0.0000000000000000e+00     0.0000000000000000e+00     0.0000000000000000e+00     4.5454545454545456e-02     3.0303030303030304e-02                          1     0.0000000000000000e+00     0.0000000000000000e+00     0.0000000000000000e+00     3.0000000000000000e+00     2.0000000000000000e+00     0.0000000000000000e+00     1.0000000000000000e+00     4.1650998886682009e-07     6.7292910827132446e-01     0.0000000000000000e+00     0.0000000000000000e+00     0.0000000000000000e+00     0.0000000000000000e+00                         15 
   -5.0000000000000000e-01    -4.6969696969696972e-01                          2                         35                          1     1.0000000000000000e+00     0.0000000000000000e+00     0.0000000000000000e+00     0.0000000000000000e+00     4.5454545454545456e-02     3.0303030303030304e-02                          1     0.0000000000000000e+00     1.7300769617066542e-04     9.3238339783793947e-05     3.0104433223506368e+00     2.0069622149004251e+00     1.1374642173850313e-06     9.7958877941504330e-01    -5.5499365116914542e-07     6.7298340981942650e-01     9.7979797979797978e-01     6.6666666666666663e-01     2.1351379289391570e-04    -9.4751147291398663e-03                         26 
   -4.6969696969696972e-01    -4.6969696969696972e-01                          2                         36                          2     1.0000000000000000e+00     0.0000000000000000e+00     0.0000000000000000e+00     0.0000000000000000e+00     4.5454545454545456e-02     3.0303030303030304e-02                          1     0.0000000000000000e+00     2.6877959782635929e-04    -5.7749839269968612e-05     3.0103491756221397e+00     2.0068994504147604e+00    -1.2020489414815705e-06     9.7958885531257200e-01    -1.2021354816516239e-06     6.7298295105598649e-01     9.7979797979797978e-01     6.6666666666666663e-01     2.1343633046777555e-04    -9.4744265839799002e-03                         26 
   -4.3939393939393939e-01    -4.6969696969696972e-01                          2                         37                          3     1.0000000000000000e+00     0.0000000000000000e+00     0.0000000000000000e+00     0.0000000000000000e+00     4.5454545454545456e-02     3.0303030303030304e-02                          1     0.0000000000000000e+00     1.1020102105540503e-04    -3.2731436459689071e-05     3.0103212687562473e+00     2.0068808458374989e+00     2.3910424705453348e-07     9.7958892802752906e-01    -1.0456233080879795e-06     6.7298232953938264e-01     9.7979797979797978e-01     6.6666666666666663e-01     2.1336211623323997e-04    -9.4734943090739598e-03                         27 
   -4.0909090909090906e-01    -4.6969696969696972e-01                          2                         38                          4     1.0000000000000000e+00     0.0000000000000000e+00     0.0000000000000000e+00     0.0000000000000000e+00     4.5454545454545456e-02     3.0303030303030304e-02                          1     0.0000000000000000e+00     1.4449979212382712e-05    -2.2943291618013940e-06     3.0103212687562051e+00     2.0068808458374705e+00     5.1277780810377038e-07     9.7958896293426312e-01    -6.0612892189801564e-07     6.7298182050791922e-01     9.7979797979797978e-01     6.6666666666666663e-01     2.1332648977268054e-04    -9.4727307618789336e-03                         26 
   -3.7878787878787878e-01    -4.6969696969696972e-01                          2                         39                          5     1.0000000000000000e+00     0.0000000000000000e+00     0.0000000000000000e+00     0.0000000000000000e+00     4.5454545454545456e-02     3.0303030303030304e-02                          1     0.0000000000000000e+00     1.0422330912615462e-13    -1.7457886761798225e-07     3.0103212687562069e+00     2.0068808458374714e+00    -2.5941110290417235e-07     9.7958897706040815e-01    -3.1285409140293449e-07     6.7298149117825734e-01     9.7979797979797978e-01     6.6666666666666663e-01     2.1331207236696681e-04    -9.4722367673860663e-03                         25 
   -3.4848484848484851e-01    -4.6969696969696972e-01                          2                         40                          6     1.0000000000000000e+00     0.0000000000000000e+00     0.0000000000000000e+00     0.0000000000000000e+00     4.5454545454545456e-02     3.0303030303030304e-02                          1     0.0000000000000000e+00     5.2529807687843475e-14    -1.7447639811467139e-07     3.0103212687562051e+00     2.0068808458374705e+00    -2.5925892058187294e-07     9.7958898424645802e-01    -1.7953531171376935e-07     6.7298128831773874e-01     9.7979797979797978e-01     6.6666666666666663e-01     2.1330473815106554e-04    -9.4719324766081581e-03                         26 
   -3.1818181818181818e-01    -4.6969696969696972e-01                          2                         41                          7     1.0000000000000000e+00     0.0000000000000000e+00     0.0000000000000000e+00     0.0000000000000000e+00     4.5454545454545456e-02     3.0303030303030304e-02                          1     0.0000000000000000e+00     4.4812296015928811e-15    -2.6380009255906565e-08     3.0103212687562033e+00     2.0068808458374696e+00    -3.9198734883005848e-08     9.7958898868180710e-01    -1.1819282962277325e-07     6.7298115502533296e-01     9.7979797979797978e-01     6.6666666666666663e-01     2.1330021135146371e-04    -9.4717325379995998e-03                         27 
   -2.8787878787878785e-01    -4.6969696969696972e-01                          2                         42                          8     1.0000000000000000e+00     0.0000000000000000e+00     0.0000000000000000e+00     0.0000000000000000e+00     4.5454545454545456e-02     3.0303030303030304e-02                          1     0.0000000000000000e+00     2.2726466362184801e-14    -2.2195081057484545e-07     3.0103212687562051e+00     2.0068808458374705e+00    -3.2980246789104939e-07     9.7958899168828095e-01    -8.5470276950038115e-08     6.7298105979658374e-01     9.7979797979797978e-01     6.6666666666666663e-01     2.1329714288853552e-04    -9.4715896948756040e-03                         26 