VARIABLES= "AXISX" "AXISY" "PID" "ID" "ID2" "DENSITY" "VELOCITYX" "VELOCITYY" "PRESSURE" "SMOOTHLENGTH" "PTSIZE" "IFLAG" "DRHOE" "Fex" "Fey" "EPSILON" "KAPPA" "RHOE" "PHI" "EX" "EY" "PHIext" "Eext" "ErrorPHI" "ErrorE" "NUMNEIGHBOR" 
ZONE T="ehdplanercase2 step 62" I= 1224, F=POINT
   -5.0000000000000000e-01    -5.0000000000000000e-01                          1                          1                          0     1.0000000000000000e+00     0.0000000000000000e+00     0.0000000000000000e+00     0.0000000000000000e+00     4.5454545454545456e-02     3.0303030303030304e-02                          1     0.0000000000000000e+00     0.0000000000000000e+00     0.0000000000000000e+00     3.0000000000000000e+00     2.0000000000000000e+00     0.0000000000000000e+00     1.0000000000000000e+00    -4.1068066786653446e-07     6.7292911021015489e-01     0.0000000000000000e+00     0.0000000000000000e+00     0.0000000000000000e+00     0.0000000000000000e+00                         15 
   -4.6969696969696972e-01    -5.0000000000000000e-01                          1                          2                          0     1.0000000000000000e+00     0.0000000000000000e+00     0.0000000000000000e+00     0.0000000000000000e+00     4.5454545454545456e-02     3.0303030303030304e-02                          1     0.0000000000000000e+00     0.0000000000000000e+00     0.0000000000000000e+00     3.0000000000000000e+00     2.0000000000000000e+00     0.0000000000000000e+00     1.0000000000000000e+00    -9.5415250517777007e-07     6.7292881359797130e-01     0.0000000000000000e+00     0.0000000000000000e+00     0.0000000000000000e+00     0.0000000000000000e+00                         15 
   -4.3939393939393939e-01    -5.0000000000000000e-01                          1                          3                          0     1.0000000000000000e+00     0.0000000000000000e+00     0.0000000000000000e+00     0.0000000000000000e+00     4.5454545454545456e-02     3.0303030303030304e-02                          1     0.0000000000000000e+00     0.0000000000000000e+00     0.0000000000000000e+00     3.0000000000000000e+00     2.0000000000000000e+00     0.0000000000000000e+00     1.0000000000000000e+00    -9.5833077144065102e-07     6.7292837055476851e-01     0.0000000000000000e+00     0.0000000000000000e+00     0.0000000000000000e+00     0.0000000000000000e+00                         15 
   -4.0909090909090906e-01    -5.0000000000000000e-01                          1                          4                          0     1.0000000000000000e+00     0.0000000000000000e+00     0.0000000000000000e+00     0.0000000000000000e+00     4.5454545454545456e-02     3.0303030303030304e-02                          1     0.0000000000000000e+00     0.0000000000000000e+00     0.0000000000000000e+00     3.0000000000000000e+00     2.0000000000000000e+00     0.0000000000000000e+00     1.0000000000000000e+00    -6.6148974782768482e-07     6.7292795452164922e-01     0.0000000000000000e+00     0.0000000000000000e+00     0.0000000000000000e+00     0.0000000000000000e+00                         15 
   -3.7878787878787878e-01    -5.0000000000000000e-01                          1                          5                          0     1.0000000000000000e+00     0.0000000000000000e+00     0.0000000000000000e+00     0.0000000000000000e+00     4.5454545454545456e-02     3.0303030303030304e-02                          1     0.0000000000000000e+00     0.0000000000000000e+00     0.0000000000000000e+00     3.0000000000000000e+00     2.0000000000000000e+00     0.0000000000000000e+00     1.0000000000000000e+00    -3.8036603239195895e-07     6.7292764652547588e-01     0.0000000000000000e+00     0.0000000000000000e+00     0.0000000000000000e+00     0.0000000000000000e+00                         15 
   -3.4848484848484851e-01    -5.0000000000000000e-01                          1                          6                          0     1.0000000000000000e+00     0.0000000000000000e+00     0.0000000000000000e+00     0.0000000000000000e+00     4.5454545454545456e-02     3.0303030303030304e-02                          1     0.0000000000000000e+00     0.0000000000000000e+00     0.0000000000000000e+00     3.0000000000000000e+00     2.0000000000000000e+00     0.0000000000000000e+00     1.0000000000000000e+00    -2.1791175418530556e-07     6.7292744113013359e-01     0.0000000000000000e+00     0.0000000000000000e+00     0.0000000000000000e+00     0.0000000000000000e+00                         15 
   -3.1818181818181818e-01    -5.0000000000000000e-01                          1                          7                          0     1.0000000000000000e+00     0.0000000000000000e+00     0.0000000000000000e+00     0.0000000000000000e+00     4.5454545454545456e-02     3.0303030303030304e-02                          1     0.0000000000000000e+00     0.0000000000000000e+00     0.0000000000000000e+00     3.0000000000000000e+00     2.0000000000000000e+00     0.0000000000000000e+00     1.0000000000000000e+00    -1.3860329947830737e-07     6.7292730367930709e-01     0.0000000000000000e+00     0.0000000000000000e+00     0.0000000000000000e+00     0.0000000000000000e+00                         15 
   -2.8787878787878785e-01    -5.0000000000000000e-01                          1                          8                          0     1.0000000000000000e+00     0.0000000000000000e+00     0.0000000000000000e+00     0.0000000000000000e+00     4.5454545454545456e-02     3.0303030303030304e-02                          1     0.0000000000000000e+00     0.0000000000000000e+00     0.0000000000000000e+00     3.0000000000000000e+00     2.0000000000000000e+00     0.0000000000000000e+00     1.0000000000000000e+00    -9.8307566890215213e-08     6.7292720594965372e-01     0.0000000000000000e+00     0.0000000000000000e+00     0.0000000000000000e+00     0.0000000000000000e+00                         15 
   -2.5757575757575757e-01    -5.0000000000000000e-01                          1                          9                          0     1.0000000000000000e+00     0.0000000000000000e+00     0.0000000000000000e+00     0.0000000000000000e+00     4.5454545454545456e-02     3.0303030303030304e-02                          1     0.0000000000000000e+00     0.0000000000000000e+00     0.0000000000000000e+00     3.0000000000000000e+00     2.0000000000000000e+00     0.0000000000000000e+00     1.0000000000000000e+00    -7.5643508648636590e-08     6.7292713163830298e-01     0.0000000000000000e+00     0.0000000000000000e+00     0.0000000000000000e+00     0.0000000000000000e+00                         15 
   -2.2727272727272729e-01    -5.0000000000000000e-01                          1                         10                          0     1.0000000000000000e+00     0.0000000000000000e+00     0.0000000000000000e+00     0.0000000000000000e+00     4.5454545454545456e-02     3.0303030303030304e-02                          1     0.0000000000000000e+00     0.0000000000000000e+00     0.0000000000000000e+00     3.0000000000000000e+00     2.0000000000000000e+00     0.0000000000000000e+00     1.0000000000000000e+00    -6.1422122699853890e-08     6.7292707204030078e-01     0.0000000000000000e+00     0.0000000000000000e+00     0.0000000000000000e+00     0.0000000000000000e+00                         15 
   -1.9696969696969696e-01    -5.0000000000000000e-01                          1                         11                          0     1.0000000000000000e+00     0.0000000000000000e+00     0.0000000000000000e+00     0.0000000000000000e+00     4.5454545454545456e-02     3.0303030303030304e-02                          1     0.0000000000000000e+00     0.0000000000000000e+00     0.0000000000000000e+00     3.0000000000000000e+00     2.0000000000000000e+00     0.0000000000000000e+00     1.0000000000000000e+00    -5.0965516538221913e-08     6.7292702260102877e-01     0.0000000000000000e+00     0.0000000000000000e+00     0.0000000000000000e+00     0.0000000000000000e+00                         15 
   -1.6666666666666663e-01    -5.0000000000000000e-01                          1                         12                          0     1.0000000000000000e+00     0.0000000000000000e+00     0.0000000000000000e+00     0.0000000000000000e+00     4.5454545454545456e-02     3.0303030303030304e-02                          1     0.0000000000000000e+00     0.0000000000000000e+00     0.0000000000000000e+00     3.0000000000000000e+00     2.0000000000000000e+00     0.0000000000000000e+00     1.0000000000000000e+00    -4.2074608571757316e-08     6.7292698115055649e-01     0.0000000000000000e+00     0.0000000000000000e+00     0.0000000000000000e+00     0.0000000000000000e+00                         15 
   -1.3636363636363635e-01    -5.0000000000000000e-01                          1                         13                          0     1.0000000000000000e+00     0.0000000000000000e+00     0.0000000000000000e+00     0.0000000000000000e+00     4.5454545454545456e-02     3.0303030303030304e-02                          1     0.0000000000000000e+00     0.0000000000000000e+00     0.0000000000000000e+00     3.0000000000000000e+00     2.0000000000000000e+00     0.0000000000000000e+00     1.0000000000000000e+00    -3.4129706802910658e-08     6.7292694680087861e-01     0.0000000000000000e+00     0.0000000000000000e+00     0.0000000000000000e+00     0.0000000000000000e+00                         15 
   -1.0606060606060608e-01    -5.0000000000000000e-01                          1                         14                          0     1.0000000000000000e+00     0.0000000000000000e+00     0.0000000000000000e+00     0.0000000000000000e+00     4.5454545454545456e-02     3.0303030303030304e-02                          1     0.0000000000000000e+00     0.0000000000000000e+00     0.0000000000000000e+00     3.0000000000000000e+00     2.0000000000000000e+00     0.0000000000000000e+00     1.0000000000000000e+00    -2.7090834856475718e-08     6.7292691913244496e-01     0.0000000000000000e+00     0.0000000000000000e+00     0.0000000000000000e+00     0.0000000000000000e+00                         15 
   -7.5757575757575746e-02    -5.0000000000000000e-01                          1                         15                          0     1.0000000000000000e+00     0.0000000000000000e+00     0.0000000000000000e+00     0.0000000000000000e+00     4.5454545454545456e-02     3.0303030303030304e-02                          1     0.0000000000000000e+00     0.0000000000000000e+00     0.0000000000000000e+00     3.0000000000000000e+00     2.0000000000000000e+00     0.0000000000000000e+00     1.0000000000000000e+00    -2.0632530763731180e-08     6.7292689775893588e-01     0.0000000000000000e+00     0.0000000000000000e+00     0.0000000000000000e+00     0.0000000000000000e+00                         15 
   -4.5454545454545414e-02    -5.0000000000000000e-01                          1                         16                          0     1.0000000000000000e+00     0.0000000000000000e+00     0.0000000000000000e+00     0.0000000000000000e+00     4.5454545454545456e-02     3.0303030303030304e-02                          1     0.0000000000000000e+00     0.0000000000000000e+00     0.0000000000000000e+00     3.0000000000000000e+00     2.0000000000000000e+00     0.0000000000000000e+00     1.0000000000000000e+00    -1.3894355361954052e-08     6.7292688243871712e-01     0.0000000000000000e+00     0.0000000000000000e+00     0.0000000000000000e+00     0.0000000000000000e+00                         15 
   -1.5151515151515138e-02    -5.0000000000000000e-01                          1                         17                          0     1.0000000000000000e+00     0.0000000000000000e+00     0.0000000000000000e+00     0.0000000000000000e+00     4.5454545454545456e-02     3.0303030303030304e-02                          1     0.0000000000000000e+00     0.0000000000000000e+00     0.0000000000000000e+00     3.0000000000000000e+00     2.0000000000000000e+00     0.0000000000000000e+00     1.0000000000000000e+00    -6.2565164324661383e-09     6.7292687342030921e-01     0.0000000000000000e+00     0.0000000000000000e+00     0.0000000000000000e+00     0.0000000000000000e+00                         15 
    1.5151515151515138e-02    -5.0000000000000000e-01                          1                         18                          0     1.0000000000000000e+00     0.0000000000000000e+00     0.0000000000000000e+00     0.0000000000000000e+00     4.5454545454545456e-02     3.0303030303030304e-02                          1     0.0000000000000000e+00     0.0000000000000000e+00     0.0000000000000000e+00     3.0000000000000000e+00     2.0000000000000000e+00     0.0000000000000000e+00     1.0000000000000000e+00     1.7434630484834748e-09     6.7292687126820983e-01     0.0000000000000000e+00     0.0000000000000000e+00     0.0000000000000000e+00     0.0000000000000000e+00                         15 
    4.5454545454545414e-02    -5.0000000000000000e-01                          1                         19                          0     1.0000000000000000e+00     0.0000000000000000e+00     0.0000000000000000e+00     0.0000000000000000e+00     4.5454545454545456e-02     3.0303030303030304e-02                          1     0.0000000000000000e+00     0.0000000000000000e+00     0.0000000000000000e+00     3.0000000000000000e+00     2.0000000000000000e+00     0.0000000000000000e+00     1.0000000000000000e+00     9.0400246004120416e-09     6.7292687612973423e-01     0.0000000000000000e+00     0.0000000000000000e+00     0.0000000000000000e+00     0.0000000000000000e+00                         15 
    7.5757575757575801e-02    -5.0000000000000000e-01                          1                         20                          0     1.0000000000000000e+00     0.0000000000000000e+00     0.0000000000000000e+00     0.0000000000000000e+00     4.5454545454545456e-02     3.0303030303030304e-02                          1     0.0000000000000000e+00     0.0000000000000000e+00     0.0000000000000000e+00     3.0000000000000000e+00     2.0000000000000000e+00     0.0000000000000000e+00     1.0000000000000000e+00     1.5734064585600689e-08     6.7292688752506991e-01     0.0000000000000000e+00     0.0000000000000000e+00     0.0000000000000000e+00     0.0000000000000000e+00                         15 
    1.0606060606060608e-01    -5.0000000000000000e-01                          1                         21                          0     1.0000000000000000e+00     0.0000000000000000e+00     0.0000000000000000e+00     0.0000000000000000e+00     4.5454545454545456e-02     3.0303030303030304e-02                          1     0.0000000000000000e+00     0.0000000000000000e+00     0.0000000000000000e+00     3.0000000000000000e+00     2.0000000000000000e+00     0.0000000000000000e+00     1.0000000000000000e+00     2.3112813926355819e-08     6.7292690517839937e-01     0.0000000000000000e+00     0.0000000000000000e+00     0.0000000000000000e+00     0.0000000000000000e+00                         15 
    1.3636363636363635e-01    -5.0000000000000000e-01                          1                         22                          0     1.0000000000000000e+00     0.0000000000000000e+00     0.0000000000000000e+00     0.0000000000000000e+00     4.5454545454545456e-02     3.0303030303030304e-02                          1     0.0000000000000000e+00     0.0000000000000000e+00     0.0000000000000000e+00     3.0000000000000000e+00     2.0000000000000000e+00     0.0000000000000000e+00     1.0000000000000000e+00     3.1615149878619309e-08     6.7292692964186651e-01     0.0000000000000000e+00     0.0000000000000000e+00     0.0000000000000000e+00     0.0000000000000000e+00                         15 
    1.6666666666666674e-01    -5.0000000000000000e-01                          1                         23                          0     1.0000000000000000e+00     0.0000000000000000e+00     0.0000000000000000e+00     0.0000000000000000e+00     4.5454545454545456e-02     3.0303030303030304e-02                          1     0.0000000000000000e+00     0.0000000000000000e+00     0.0000000000000000e+00     3.0000000000000000e+00     2.0000000000000000e+00     0.0000000000000000e+00     1.0000000000000000e+00     4.0244781928292292e-08     6.7292696164520627e-01     0.0000000000000000e+00     0.0000000000000000e+00     0.0000000000000000e+00     0.0000000000000000e+00                         15 
    1.9696969696969702e-01    -5.0000000000000000e-01                          1                         24                          0     1.0000000000000000e+00     0.0000000000000000e+00     0.0000000000000000e+00     0.0000000000000000e+00     4.5454545454545456e-02     3.0303030303030304e-02                          1     0.0000000000000000e+00     0.0000000000000000e+00     0.0000000000000000e+00     3.0000000000000000e+00     2.0000000000000000e+00     0.0000000000000000e+00     1.0000000000000000e+00     4.8888591972104231e-08     6.7292700142514661e-01     0.0000000000000000e+00     0.0000000000000000e+00     0.0000000000000000e+00     0.0000000000000000e+00                         15 
    2.2727272727272729e-01    -5.0000000000000000e-01                          1                         25                          0     1.0000000000000000e+00     0.0000000000000000e+00     0.0000000000000000e+00     0.0000000000000000e+00     4.5454545454545456e-02     3.0303030303030304e-02                          1     0.0000000000000000e+00     0.0000000000000000e+00     0.0000000000000000e+00     3.0000000000000000e+00     2.0000000000000000e+00     0.0000000000000000e+00     1.0000000000000000e+00     5.9691208125963608e-08     6.7292704962010474e-01     0.0000000000000000e+00     0.0000000000000000e+00     0.0000000000000000e+00     0.0000000000000000e+00                         15 
    2.5757575757575757e-01    -5.0000000000000000e-01                          1                         26                          0     1.0000000000000000e+00     0.0000000000000000e+00     0.0000000000000000e+00     0.0000000000000000e+00     4.5454545454545456e-02     3.0303030303030304e-02                          1     0.0000000000000000e+00     0.0000000000000000e+00     0.0000000000000000e+00     3.0000000000000000e+00     2.0000000000000000e+00     0.0000000000000000e+00     1.0000000000000000e+00     7.5435636553340728e-08     6.7292710870160066e-01     0.0000000000000000e+00     0.0000000000000000e+00     0.0000000000000000e+00     0.0000000000000000e+00                         15 
    2.8787878787878785e-01    -5.0000000000000000e-01                          1                         27                          0     1.0000000000000000e+00     0.0000000000000000e+00     0.0000000000000000e+00     0.0000000000000000e+00     4.5454545454545456e-02     3.0303030303030304e-02                          1     0.0000000000000000e+00     0.0000000000000000e+00     0.0000000000000000e+00     3.0000000000000000e+00     2.0000000000000000e+00     0.0000000000000000e+00     1.0000000000000000e+00     9.9493154017997682e-08     6.7292718346711178e-01     0.0000000000000000e+00     0.0000000000000000e+00     0.0000000000000000e+00     0.0000000000000000e+00                         15 
    3.1818181818181823e-01    -5.0000000000000000e-01                          1                         28                          0     1.0000000000000000e+00     0.0000000000000000e+00     0.0000000000000000e+00     0.0000000000000000e+00     4.5454545454545456e-02     3.0303030303030304e-02                          1     0.0000000000000000e+00     0.0000000000000000e+00     0.0000000000000000e+00     3.0000000000000000e+00     2.0000000000000000e+00     0.0000000000000000e+00     1.0000000000000000e+00     1.4073852789304672e-07     6.7292728233791754e-01     0.0000000000000000e+00     0.0000000000000000e+00     0.0000000000000000e+00     0.0000000000000000e+00                         15 
    3.4848484848484851e-01    -5.0000000000000000e-01                          1                         29                          0     1.0000000000000000e+00     0.0000000000000000e+00     0.0000000000000000e+00     0.0000000000000000e+00     4.5454545454545456e-02     3.0303030303030304e-02                          1     0.0000000000000000e+00     0.0000000000000000e+00     0.0000000000000000e+00     3.0000000000000000e+00     2.0000000000000000e+00     0.0000000000000000e+00     1.0000000000000000e+00     2.2170680621767556e-07     6.7292742177989562e-01     0.0000000000000000e+00     0.0000000000000000e+00     0.0000000000000000e+00     0.0000000000000000e+00                         15 
    3.7878787878787878e-01    -5.0000000000000000e-01                          1                         30                          0     1.0000000000000000e+00     0.0000000000000000e+00     0.0000000000000000e+00     0.0000000000000000e+00     4.5454545454545456e-02     3.0303030303030304e-02                          1     0.0000000000000000e+00     0.0000000000000000e+00     0.0000000000000000e+00     3.0000000000000000e+00     2.0000000000000000e+00     0.0000000000000000e+00     1.0000000000000000e+00     3.8548851525997051e-07     6.7292763074134299e-01     0.0000000000000000e+00     0.0000000000000000e+00     0.0000000000000000e+00     0.0000000000000000e+00                         15 
    4.0909090909090917e-01    -5.0000000000000000e-01                          1                         31                          0     1.0000000000000000e+00     0.0000000000000000e+00     0.0000000000000000e+00     0.0000000000000000e+00     4.5454545454545456e-02     3.0303030303030304e-02                          1     0.0000000000000000e+00     0.0000000000000000e+00     0.0000000000000000e+00     3.0000000000000000e+00     2.0000000000000000e+00     0.0000000000000000e+00     1.0000000000000000e+00     6.6525040614786495e-07     6.7292794329263350e-01     0.0000000000000000e+00     0.0000000000000000e+00     0.0000000000000000e+00     0.0000000000000000e+00                         15 
    4.3939393939393945e-01    -5.0000000000000000e-01                          1                         32                          0     1.0000000000000000e+00     0.0000000000000000e+00     0.0000000000000000e+00     0.0000000000000000e+00     4.5454545454545456e-02     3.0303030303030304e-02                          1     0.0000000000000000e+00     0.0000000000000000e+00     0.0000000000000000e+00     3.0000000000000000e+00     2.0000000000000000e+00     0.0000000000000000e+00     1.0000000000000000e+00     9.6008387451524154e-07     6.7292836297515690e-01     0.0000000000000000e+00     0.0000000000000000e+00     0.0000000000000000e+00     0.0000000000000000e+00                         15 
    4.6969696969696972e-01    -5.0000000000000000e-01                          1                         33                          0     1.0000000000000000e+00     0.0000000000000000e+00     0.0000000000000000e+00     0.0000000000000000e+00     4.5454545454545456e-02     3.0303030303030304e-02                          1     0.0000000000000000e+00     0.0000000000000000e+00     0.0000000000000000e+00     3.0000000000000000e+00     2.0000000000000000e+00     0.0000000000000000e+00     1.0000000000000000e+00     9.5717580200805170e-07     6.7292880854660597e-01     0.0000000000000000e+00     0.0000000000000000e+00     0.0000000000000000e+00     0.0000000000000000e+00                         15 
    5.0000000000000000e-01    -5.0000000000000000e-01                          1                         34                          0     1.0000000000000000e+00     0.0000000000000000e+00     0.0000000000000000e+00     0.0000000000000000e+00     4.5454545454545456e-02     3.0303030303030304e-02                          1     0.0000000000000000e+00     0.0000000000000000e+00     0.0000000000000000e+00     3.0000000000000000e+00     2.0000000000000000e+00     0.0000000000000000e+00     1.0000000000000000e+00     4.1650998591972326e-07     6.7292910827130803e-01     0.0000000000000000e+00     0.0000000000000000e+00     0.0000000000000000e+00     0.0000000000000000e+00                         15 
   -5.0000000000000000e-01    -4.6969696969696972e-01                          2                         35                          1     1.0000000000000000e+00     0.0000000000000000e+00     0.0000000000000000e+00     0.0000000000000000e+00     4.5454545454545456e-02     3.0303030303030304e-02                          1     0.0000000000000000e+00     1.7300769617066943e-04     9.3238339555089820e-05     3.0104433223506368e+00     2.0069622149004251e+00     1.1374638775457635e-06     9.7958877941504285e-01    -5.5499365414670964e-07     6.7298340981943394e-01     9.7979797979797978e-01     6.6666666666666663e-01     2.1351379289435979e-04    -9.4751147291509685e-03                         26 
   -4.6969696969696972e-01    -4.6969696969696972e-01                          2                         36                          2     1.0000000000000000e+00     0.0000000000000000e+00     0.0000000000000000e+00     0.0000000000000000e+00     4.5454545454545456e-02     3.0303030303030304e-02                          1     0.0000000000000000e+00     2.6877959782636336e-04    -5.7749838903636491e-05     3.0103491756221397e+00     2.0068994504147604e+00    -1.2020483971392215e-06     9.7958885531257178e-01    -1.2021354855490171e-06     6.7298295105599237e-01     9.7979797979797978e-01     6.6666666666666663e-01     2.1343633046799759e-04    -9.4744265839885600e-03                         26 
   -4.3939393939393939e-01    -4.6969696969696972e-01                          2                         37                          3     1.0000000000000000e+00     0.0000000000000000e+00     0.0000000000000000e+00     0.0000000000000000e+00     4.5454545454545456e-02     3.0303030303030304e-02                          1     0.0000000000000000e+00     1.1020102105540671e-04    -3.2731436503968152e-05     3.0103212687562473e+00     2.0068808458374989e+00     2.3910418125994148e-07     9.7958892802752884e-01    -1.0456233087464330e-06     6.7298232953938752e-01     9.7979797979797978e-01     6.6666666666666663e-01     2.1336211623346202e-04    -9.4734943090812873e-03                         27 
   -4.0909090909090906e-01    -4.6969696969696972e-01                          2                         38                          4     1.0000000000000000e+00     0.0000000000000000e+00     0.0000000000000000e+00     0.0000000000000000e+00     4.5454545454545456e-02     3.0303030303030304e-02                          1     0.0000000000000000e+00     1.4449979212383535e-05    -2.2943298595647298e-06     3.0103212687562051e+00     2.0068808458374705e+00     5.1277677128036547e-07     9.7958896293426279e-01    -6.0612892158806659e-07     6.7298182050792377e-01     9.7979797979797978e-01     6.6666666666666663e-01     2.1332648977301361e-04    -9.4727307618858170e-03                         26 
   -3.7878787878787878e-01    -4.6969696969696972e-01                          2                         39                          5     1.0000000000000000e+00     0.0000000000000000e+00     0.0000000000000000e+00     0.0000000000000000e+00     4.5454545454545456e-02     3.0303030303030304e-02                          1     0.0000000000000000e+00     1.0422293852728928e-13    -1.7457807190240580e-07     3.0103212687562069e+00     2.0068808458374714e+00    -2.5940992053052891e-07     9.7958897706040804e-01    -3.1285408874908937e-07     6.7298149117826211e-01     9.7979797979797978e-01     6.6666666666666663e-01     2.1331207236707783e-04    -9.4722367673931718e-03                         25 
   -3.4848484848484851e-01    -4.6969696969696972e-01                          2                         40                          6     1.0000000000000000e+00     0.0000000000000000e+00     0.0000000000000000e+00     0.0000000000000000e+00     4.5454545454545456e-02     3.0303030303030304e-02                          1     0.0000000000000000e+00     5.2530222640797711e-14    -1.7447795802456254e-07     3.0103212687562051e+00     2.0068808458374705e+00    -2.5926123849162597e-07     9.7958898424645735e-01    -1.7953530710954945e-07     6.7298128831773629e-01     9.7979797979797978e-01     6.6666666666666663e-01     2.1330473815173168e-04    -9.4719324766046054e-03                         26 
   -3.1818181818181818e-01    -4.6969696969696972e-01                          2                         41                          7     1.0000000000000000e+00     0.0000000000000000e+00     0.0000000000000000e+00     0.0000000000000000e+00     4.5454545454545456e-02     3.0303030303030304e-02                          1     0.0000000000000000e+00     4.4812034260274445e-15    -2.6379861019525665e-08     3.0103212687562033e+00     2.0068808458374696e+00    -3.9198514614757762e-08     9.7958898868180655e-01    -1.1819282601452607e-07     6.7298115502531031e-01     9.7979797979797978e-01     6.6666666666666663e-01     2.1330021135201882e-04    -9.4717325379656270e-03                         27 
   -2.8787878787878785e-01    -4.6969696969696972e-01                          2                         42                          8     1.0000000000000000e+00     0.0000000000000000e+00     0.0000000000000000e+00     0.0000000000000000e+00     4.5454545454545456e-02     3.0303030303030304e-02                          1     0.0000000000000000e+00     2.2726438740204071e-14    -2.2195055295439442e-07     3.0103212687562051e+00     2.0068808458374705e+00    -3.2980208508615050e-07     9.7958899168828062e-01    -8.5470292403123478e-08     6.7298105979657019e-01     9.7979797979797978e-01     6.6666666666666663e-01     2.1329714288886858e-04    -9.4715896948553979e-03                         26 