VARIABLES= "AXISX" "AXISY" "PID" "ID" "ID2" "DENSITY" "VELOCITYX" "VELOCITYY" "PRESSURE" "SMOOTHLENGTH" "PTSIZE" "IFLAG" "CI" "EEPSILON" "EKAPPA" "ERHOE" "EPHI" "EEX" "EEY" 
ZONE T="EHDBulkRelax step 0" I= 4489, F=POINT
   -5.1562500000000000e-01    -5.1562500000000000e-01                          3                          1                          0     1.0000000000000000e+00     0.0000000000000000e+00     0.0000000000000000e+00     0.0000000000000000e+00     2.3437500000000000e-02     1.5625000000000000e-02                          0     0.0000000000000000e+00     0.0000000000000000e+00     0.0000000000000000e+00     5.1968470181280521e-46     0.0000000000000000e+00     0.0000000000000000e+00     0.0000000000000000e+00 
   -5.0000000000000000e-01    -5.1562500000000000e-01                          3                          2                          0     1.0000000000000000e+00     0.0000000000000000e+00     0.0000000000000000e+00     0.0000000000000000e+00     2.3437500000000000e-02     1.5625000000000000e-02                          0     0.0000000000000000e+00     0.0000000000000000e+00     0.0000000000000000e+00     1.2419839095515808e-44     0.0000000000000000e+00     0.0000000000000000e+00     0.0000000000000000e+00 
   -4.8437500000000000e-01    -5.1562500000000000e-01                          3                          3                          0     1.0000000000000000e+00     0.0000000000000000e+00     0.0000000000000000e+00     0.0000000000000000e+00     2.3437500000000000e-02     1.5625000000000000e-02                          0     0.0000000000000000e+00     0.0000000000000000e+00     0.0000000000000000e+00     2.6920333508712477e-43     0.0000000000000000e+00     0.0000000000000000e+00     0.0000000000000000e+00 
   -4.6875000000000000e-01    -5.1562500000000000e-01                          3                          4                          0     1.0000000000000000e+00     0.0000000000000000e+00     0.0000000000000000e+00     0.0000000000000000e+00     2.3437500000000000e-02     1.5625000000000000e-02                          0     0.0000000000000000e+00     0.0000000000000000e+00     0.0000000000000000e+00     5.2921644624229060e-42     0.0000000000000000e+00     0.0000000000000000e+00     0.0000000000000000e+00 
   -4.5312500000000000e-01    -5.1562500000000000e-01                          3                          5                          0     1.0000000000000000e+00     0.0000000000000000e+00     0.0000000000000000e+00     0.0000000000000000e+00     2.3437500000000000e-02     1.5625000000000000e-02                          0     0.0000000000000000e+00     0.0000000000000000e+00     0.0000000000000000e+00     9.4357115913759205e-41     0.0000000000000000e+00     0.0000000000000000e+00     0.0000000000000000e+00 
   -4.3750000000000000e-01    -5.1562500000000000e-01                          3                          6                          0     1.0000000000000000e+00     0.0000000000000000e+00     0.0000000000000000e+00     0.0000000000000000e+00     2.3437500000000000e-02     1.5625000000000000e-02                          0     0.0000000000000000e+00     0.0000000000000000e+00     0.0000000000000000e+00     1.5258239003839757e-39     0.0000000000000000e+00     0.0000000000000000e+00     0.0000000000000000e+00 
   -4.2187500000000000e-01    -5.1562500000000000e-01                          3                          7                          0     1.0000000000000000e+00     0.0000000000000000e+00     0.0000000000000000e+00     0.0000000000000000e+00     2.3437500000000000e-02     1.5625000000000000e-02                          0     0.0000000000000000e+00     0.0000000000000000e+00     0.0000000000000000e+00     2.2378068476209015e-38     0.0000000000000000e+00     0.0000000000000000e+00     0.0000000000000000e+00 
   -4.0625000000000000e-01    -5.1562500000000000e-01                          3                          8                          0     1.0000000000000000e+00     0.0000000000000000e+00     0.0000000000000000e+00     0.0000000000000000e+00     2.3437500000000000e-02     1.5625000000000000e-02                          0     0.0000000000000000e+00     0.0000000000000000e+00     0.0000000000000000e+00     2.9766598742131891e-37     0.0000000000000000e+00     0.0000000000000000e+00     0.0000000000000000e+00 
   -3.9062500000000000e-01    -5.1562500000000000e-01                          3                          9                          0     1.0000000000000000e+00     0.0000000000000000e+00     0.0000000000000000e+00     0.0000000000000000e+00     2.3437500000000000e-02     1.5625000000000000e-02                          0     0.0000000000000000e+00     0.0000000000000000e+00     0.0000000000000000e+00     3.5910731972878220e-36     0.0000000000000000e+00     0.0000000000000000e+00     0.0000000000000000e+00 
   -3.7500000000000000e-01    -5.1562500000000000e-01                          3                         10                          0     1.0000000000000000e+00     0.0000000000000000e+00     0.0000000000000000e+00     0.0000000000000000e+00     2.3437500000000000e-02     1.5625000000000000e-02                          0     0.0000000000000000e+00     0.0000000000000000e+00     0.0000000000000000e+00     3.9292325351558395e-35     0.0000000000000000e+00     0.0000000000000000e+00     0.0000000000000000e+00 
   -3.5937500000000000e-01    -5.1562500000000000e-01                          3                         11                          0     1.0000000000000000e+00     0.0000000000000000e+00     0.0000000000000000e+00     0.0000000000000000e+00     2.3437500000000000e-02     1.5625000000000000e-02                          0     0.0000000000000000e+00     0.0000000000000000e+00     0.0000000000000000e+00     3.8992370196134742e-34     0.0000000000000000e+00     0.0000000000000000e+00     0.0000000000000000e+00 
   -3.4375000000000000e-01    -5.1562500000000000e-01                          3                         12                          0     1.0000000000000000e+00     0.0000000000000000e+00     0.0000000000000000e+00     0.0000000000000000e+00     2.3437500000000000e-02     1.5625000000000000e-02                          0     0.0000000000000000e+00     0.0000000000000000e+00     0.0000000000000000e+00     3.5094573457251888e-33     0.0000000000000000e+00     0.0000000000000000e+00     0.0000000000000000e+00 
   -3.2812500000000000e-01    -5.1562500000000000e-01                          3                         13                          0     1.0000000000000000e+00     0.0000000000000000e+00     0.0000000000000000e+00     0.0000000000000000e+00     2.3437500000000000e-02     1.5625000000000000e-02                          0     0.0000000000000000e+00     0.0000000000000000e+00     0.0000000000000000e+00     2.8647632131622825e-32     0.0000000000000000e+00     0.0000000000000000e+00     0.0000000000000000e+00 
   -3.1250000000000000e-01    -5.1562500000000000e-01                          3                         14                          0     1.0000000000000000e+00     0.0000000000000000e+00     0.0000000000000000e+00     0.0000000000000000e+00     2.3437500000000000e-02     1.5625000000000000e-02                          0     0.0000000000000000e+00     0.0000000000000000e+00     0.0000000000000000e+00     2.1209279907988454e-31     0.0000000000000000e+00     0.0000000000000000e+00     0.0000000000000000e+00 
   -2.9687500000000000e-01    -5.1562500000000000e-01                          3                         15                          0     1.0000000000000000e+00     0.0000000000000000e+00     0.0000000000000000e+00     0.0000000000000000e+00     2.3437500000000000e-02     1.5625000000000000e-02                          0     0.0000000000000000e+00     0.0000000000000000e+00     0.0000000000000000e+00     1.4241362655285980e-30     0.0000000000000000e+00     0.0000000000000000e+00     0.0000000000000000e+00 
   -2.8125000000000000e-01    -5.1562500000000000e-01                          3                         16                          0     1.0000000000000000e+00     0.0000000000000000e+00     0.0000000000000000e+00     0.0000000000000000e+00     2.3437500000000000e-02     1.5625000000000000e-02                          0     0.0000000000000000e+00     0.0000000000000000e+00     0.0000000000000000e+00     8.6729251364776345e-30     0.0000000000000000e+00     0.0000000000000000e+00     0.0000000000000000e+00 
   -2.6562500000000000e-01    -5.1562500000000000e-01                          3                         17                          0     1.0000000000000000e+00     0.0000000000000000e+00     0.0000000000000000e+00     0.0000000000000000e+00     2.3437500000000000e-02     1.5625000000000000e-02                          0     0.0000000000000000e+00     0.0000000000000000e+00     0.0000000000000000e+00     4.7903591922831823e-29     0.0000000000000000e+00     0.0000000000000000e+00     0.0000000000000000e+00 
   -2.5000000000000000e-01    -5.1562500000000000e-01                          3                         18                          0     1.0000000000000000e+00     0.0000000000000000e+00     0.0000000000000000e+00     0.0000000000000000e+00     2.3437500000000000e-02     1.5625000000000000e-02                          0     0.0000000000000000e+00     0.0000000000000000e+00     0.0000000000000000e+00     2.3997112642490189e-28     0.0000000000000000e+00     0.0000000000000000e+00     0.0000000000000000e+00 
   -2.3437500000000000e-01    -5.1562500000000000e-01                          3                         19                          0     1.0000000000000000e+00     0.0000000000000000e+00     0.0000000000000000e+00     0.0000000000000000e+00     2.3437500000000000e-02     1.5625000000000000e-02                          0     0.0000000000000000e+00     0.0000000000000000e+00     0.0000000000000000e+00     1.0902807161640972e-27     0.0000000000000000e+00     0.0000000000000000e+00     0.0000000000000000e+00 
   -2.1875000000000000e-01    -5.1562500000000000e-01                          3                         20                          0     1.0000000000000000e+00     0.0000000000000000e+00     0.0000000000000000e+00     0.0000000000000000e+00     2.3437500000000000e-02     1.5625000000000000e-02                          0     0.0000000000000000e+00     0.0000000000000000e+00     0.0000000000000000e+00     4.4926863607036548e-27     0.0000000000000000e+00     0.0000000000000000e+00     0.0000000000000000e+00 
   -2.0312500000000000e-01    -5.1562500000000000e-01                          3                         21                          0     1.0000000000000000e+00     0.0000000000000000e+00     0.0000000000000000e+00     0.0000000000000000e+00     2.3437500000000000e-02     1.5625000000000000e-02                          0     0.0000000000000000e+00     0.0000000000000000e+00     0.0000000000000000e+00     1.6790448655790970e-26     0.0000000000000000e+00     0.0000000000000000e+00     0.0000000000000000e+00 
   -1.8750000000000000e-01    -5.1562500000000000e-01                          3                         22                          0     1.0000000000000000e+00     0.0000000000000000e+00     0.0000000000000000e+00     0.0000000000000000e+00     2.3437500000000000e-02     1.5625000000000000e-02                          0     0.0000000000000000e+00     0.0000000000000000e+00     0.0000000000000000e+00     5.6912403981885556e-26     0.0000000000000000e+00     0.0000000000000000e+00     0.0000000000000000e+00 
   -1.7187500000000000e-01    -5.1562500000000000e-01                          3                         23                          0     1.0000000000000000e+00     0.0000000000000000e+00     0.0000000000000000e+00     0.0000000000000000e+00     2.3437500000000000e-02     1.5625000000000000e-02                          0     0.0000000000000000e+00     0.0000000000000000e+00     0.0000000000000000e+00     1.7496049140698377e-25     0.0000000000000000e+00     0.0000000000000000e+00     0.0000000000000000e+00 
   -1.5625000000000000e-01    -5.1562500000000000e-01                          3                         24                          0     1.0000000000000000e+00     0.0000000000000000e+00     0.0000000000000000e+00     0.0000000000000000e+00     2.3437500000000000e-02     1.5625000000000000e-02                          0     0.0000000000000000e+00     0.0000000000000000e+00     0.0000000000000000e+00     4.8782210812073755e-25     0.0000000000000000e+00     0.0000000000000000e+00     0.0000000000000000e+00 
   -1.4062500000000000e-01    -5.1562500000000000e-01                          3                         25                          0     1.0000000000000000e+00     0.0000000000000000e+00     0.0000000000000000e+00     0.0000000000000000e+00     2.3437500000000000e-02     1.5625000000000000e-02                          0     0.0000000000000000e+00     0.0000000000000000e+00     0.0000000000000000e+00     1.2335915821390160e-24     0.0000000000000000e+00     0.0000000000000000e+00     0.0000000000000000e+00 
   -1.2500000000000000e-01    -5.1562500000000000e-01                          3                         26                          0     1.0000000000000000e+00     0.0000000000000000e+00     0.0000000000000000e+00     0.0000000000000000e+00     2.3437500000000000e-02     1.5625000000000000e-02                          0     0.0000000000000000e+00     0.0000000000000000e+00     0.0000000000000000e+00     2.8292397115623689e-24     0.0000000000000000e+00     0.0000000000000000e+00     0.0000000000000000e+00 
   -1.0937500000000000e-01    -5.1562500000000000e-01                          3                         27                          0     1.0000000000000000e+00     0.0000000000000000e+00     0.0000000000000000e+00     0.0000000000000000e+00     2.3437500000000000e-02     1.5625000000000000e-02                          0     0.0000000000000000e+00     0.0000000000000000e+00     0.0000000000000000e+00     5.8851362652908802e-24     0.0000000000000000e+00     0.0000000000000000e+00     0.0000000000000000e+00 
   -9.3750000000000000e-02    -5.1562500000000000e-01                          3                         28                          0     1.0000000000000000e+00     0.0000000000000000e+00     0.0000000000000000e+00     0.0000000000000000e+00     2.3437500000000000e-02     1.5625000000000000e-02                          0     0.0000000000000000e+00     0.0000000000000000e+00     0.0000000000000000e+00     1.1102779897159669e-23     0.0000000000000000e+00     0.0000000000000000e+00     0.0000000000000000e+00 
   -7.8125000000000000e-02    -5.1562500000000000e-01                          3                         29                          0     1.0000000000000000e+00     0.0000000000000000e+00     0.0000000000000000e+00     0.0000000000000000e+00     2.3437500000000000e-02     1.5625000000000000e-02                          0     0.0000000000000000e+00     0.0000000000000000e+00     0.0000000000000000e+00     1.8997452504702945e-23     0.0000000000000000e+00     0.0000000000000000e+00     0.0000000000000000e+00 
   -6.2500000000000000e-02    -5.1562500000000000e-01                          3                         30                          0     1.0000000000000000e+00     0.0000000000000000e+00     0.0000000000000000e+00     0.0000000000000000e+00     2.3437500000000000e-02     1.5625000000000000e-02                          0     0.0000000000000000e+00     0.0000000000000000e+00     0.0000000000000000e+00     2.9481354571926571e-23     0.0000000000000000e+00     0.0000000000000000e+00     0.0000000000000000e+00 
   -4.6875000000000000e-02    -5.1562500000000000e-01                          3                         31                          0     1.0000000000000000e+00     0.0000000000000000e+00     0.0000000000000000e+00     0.0000000000000000e+00     2.3437500000000000e-02     1.5625000000000000e-02                          0     0.0000000000000000e+00     0.0000000000000000e+00     0.0000000000000000e+00     4.1494251063323423e-23     0.0000000000000000e+00     0.0000000000000000e+00     0.0000000000000000e+00 
   -3.1250000000000000e-02    -5.1562500000000000e-01                          3                         32                          0     1.0000000000000000e+00     0.0000000000000000e+00     0.0000000000000000e+00     0.0000000000000000e+00     2.3437500000000000e-02     1.5625000000000000e-02                          0     0.0000000000000000e+00     0.0000000000000000e+00     0.0000000000000000e+00     5.2968400209910809e-23     0.0000000000000000e+00     0.0000000000000000e+00     0.0000000000000000e+00 
   -1.5625000000000000e-02    -5.1562500000000000e-01                          3                         33                          0     1.0000000000000000e+00     0.0000000000000000e+00     0.0000000000000000e+00     0.0000000000000000e+00     2.3437500000000000e-02     1.5625000000000000e-02                          0     0.0000000000000000e+00     0.0000000000000000e+00     0.0000000000000000e+00     6.1324527657408224e-23     0.0000000000000000e+00     0.0000000000000000e+00     0.0000000000000000e+00 
    0.0000000000000000e+00    -5.1562500000000000e-01                          3                         34                          0     1.0000000000000000e+00     0.0000000000000000e+00     0.0000000000000000e+00     0.0000000000000000e+00     2.3437500000000000e-02     1.5625000000000000e-02                          0     0.0000000000000000e+00     0.0000000000000000e+00     0.0000000000000000e+00     6.4393198403393371e-23     0.0000000000000000e+00     0.0000000000000000e+00     0.0000000000000000e+00 
    1.5625000000000000e-02    -5.1562500000000000e-01                          3                         35                          0     1.0000000000000000e+00     0.0000000000000000e+00     0.0000000000000000e+00     0.0000000000000000e+00     2.3437500000000000e-02     1.5625000000000000e-02                          0     0.0000000000000000e+00     0.0000000000000000e+00     0.0000000000000000e+00     6.1324527657408224e-23     0.0000000000000000e+00     0.0000000000000000e+00     0.0000000000000000e+00 
    3.1250000000000000e-02    -5.1562500000000000e-01                          3                         36                          0     1.0000000000000000e+00     0.0000000000000000e+00     0.0000000000000000e+00     0.0000000000000000e+00     2.3437500000000000e-02     1.5625000000000000e-02                          0     0.0000000000000000e+00     0.0000000000000000e+00     0.0000000000000000e+00     5.2968400209910809e-23     0.0000000000000000e+00     0.0000000000000000e+00     0.0000000000000000e+00 
    4.6875000000000000e-02    -5.1562500000000000e-01                          3                         37                          0     1.0000000000000000e+00     0.0000000000000000e+00     0.0000000000000000e+00     0.0000000000000000e+00     2.3437500000000000e-02     1.5625000000000000e-02                          0     0.0000000000000000e+00     0.0000000000000000e+00     0.0000000000000000e+00     4.1494251063323423e-23     0.0000000000000000e+00     0.0000000000000000e+00     0.0000000000000000e+00 
    6.2500000000000000e-02    -5.1562500000000000e-01                          3                         38                          0     1.0000000000000000e+00     0.0000000000000000e+00     0.0000000000000000e+00     0.0000000000000000e+00     2.3437500000000000e-02     1.5625000000000000e-02                          0     0.0000000000000000e+00     0.0000000000000000e+00     0.0000000000000000e+00     2.9481354571926571e-23     0.0000000000000000e+00     0.0000000000000000e+00     0.0000000000000000e+00 
    7.8125000000000000e-02    -5.1562500000000000e-01                          3                         39                          0     1.0000000000000000e+00     0.0000000000000000e+00     0.0000000000000000e+00     0.0000000000000000e+00     2.3437500000000000e-02     1.5625000000000000e-02                          0     0.0000000000000000e+00     0.0000000000000000e+00     0.0000000000000000e+00     1.8997452504702945e-23     0.0000000000000000e+00     0.0000000000000000e+00     0.0000000000000000e+00 
    9.3750000000000000e-02    -5.1562500000000000e-01                          3                         40                          0     1.0000000000000000e+00     0.0000000000000000e+00     0.0000000000000000e+00     0.0000000000000000e+00     2.3437500000000000e-02     1.5625000000000000e-02                          0     0.0000000000000000e+00     0.0000000000000000e+00     0.0000000000000000e+00     1.1102779897159669e-23     0.0000000000000000e+00     0.0000000000000000e+00     0.0000000000000000e+00 
    1.0937500000000000e-01    -5.1562500000000000e-01                          3                         41                          0     1.0000000000000000e+00     0.0000000000000000e+00     0.0000000000000000e+00     0.0000000000000000e+00     2.3437500000000000e-02     1.5625000000000000e-02                          0     0.0000000000000000e+00     0.0000000000000000e+00     0.0000000000000000e+00     5.8851362652908802e-24     0.0000000000000000e+00     0.0000000000000000e+00     0.0000000000000000e+00 
    1.2500000000000000e-01    -5.1562500000000000e-01                          3                         42                          0     1.0000000000000000e+00     0.0000000000000000e+00     0.0000000000000000e+00     0.0000000000000000e+00     2.3437500000000000e-02     1.5625000000000000e-02                          0     0.0000000000000000e+00     0.0000000000000000e+00     0.0000000000000000e+00     2.8292397115623689e-24     0.0000000000000000e+00     0.0000000000000000e+00     0.0000000000000000e+00 
    1.4062500000000000e-01    -5.1562500000000000e-01                          3                         43                          0     1.0000000000000000e+00     0.0000000000000000e+00     0.0000000000000000e+00     0.0000000000000000e+00     2.3437500000000000e-02     1.5625000000000000e-02                          0     0.0000000000000000e+00     0.0000000000000000e+00     0.0000000000000000e+00     1.2335915821390160e-24     0.0000000000000000e+00     0.0000000000000000e+00     0.0000000000000000e+00 
    1.5625000000000000e-01    -5.1562500000000000e-01                          3                         44                          0     1.0000000000000000e+00     0.0000000000000000e+00     0.0000000000000000e+00     0.0000000000000000e+00     2.3437500000000000e-02     1.5625000000000000e-02                          0     0.0000000000000000e+00     0.0000000000000000e+00     0.0000000000000000e+00     4.8782210812073755e-25     0.0000000000000000e+00     0.0000000000000000e+00     0.0000000000000000e+00 
    1.7187500000000000e-01    -5.1562500000000000e-01                          3                         45                          0     1.0000000000000000e+00     0.0000000000000000e+00     0.0000000000000000e+00     0.0000000000000000e+00     2.3437500000000000e-02     1.5625000000000000e-02                          0     0.0000000000000000e+00     0.0000000000000000e+00     0.0000000000000000e+00     1.7496049140698377e-25     0.0000000000000000e+00     0.0000000000000000e+00     0.0000000000000000e+00 
    1.8750000000000000e-01    -5.1562500000000000e-01                          3                         46                          0     1.0000000000000000e+00     0.0000000000000000e+00     0.0000000000000000e+00     0.0000000000000000e+00     2.3437500000000000e-02     1.5625000000000000e-02                          0     0.0000000000000000e+00     0.0000000000000000e+00     0.0000000000000000e+00     5.6912403981885556e-26     0.0000000000000000e+00     0.0000000000000000e+00     0.0000000000000000e+00 
    2.0312500000000000e-01    -5.1562500000000000e-01                          3                         47                          0     1.0000000000000000e+00     0.0000000000000000e+00     0.0000000000000000e+00     0.0000000000000000e+00     2.3437500000000000e-02     1.5625000000000000e-02                          0     0.0000000000000000e+00     0.0000000000000000e+00     0.0000000000000000e+00     1.6790448655790970e-26     0.0000000000000000e+00     0.0000000000000000e+00     0.0000000000000000e+00 
    2.1875000000000000e-01    -5.1562500000000000e-01                          3                         48                          0     1.0000000000000000e+00     0.0000000000000000e+00     0.0000000000000000e+00     0.0000000000000000e+00     2.3437500000000000e-02     1.5625000000000000e-02                          0     0.0000000000000000e+00     0.0000000000000000e+00     0.0000000000000000e+00     4.4926863607036548e-27     0.0000000000000000e+00     0.0000000000000000e+00     0.0000000000000000e+00 
    2.3437500000000000e-01    -5.1562500000000000e-01                          3                         49                          0     1.0000000000000000e+00     0.0000000000000000e+00     0.0000000000000000e+00     0.0000000000000000e+00     2.3437500000000000e-02     1.5625000000000000e-02                          0     0.0000000000000000e+00     0.0000000000000000e+00     0.0000000000000000e+00     1.0902807161640972e-27     0.0000000000000000e+00     0.0000000000000000e+00     0.0000000000000000e+00 
    2.5000000000000000e-01    -5.1562500000000000e-01                          3                         50                          0     1.0000000000000000e+00     0.0000000000000000e+00     0.0000000000000000e+00     0.0000000000000000e+00     2.3437500000000000e-02     1.5625000000000000e-02                          0     0.0000000000000000e+00     0.0000000000000000e+00     0.0000000000000000e+00     2.3997112642490189e-28     0.0000000000000000e+00     0.0000000000000000e+00     0.0000000000000000e+00 
    2.6562500000000000e-01    -5.1562500000000000e-01                          3                         51                          0     1.0000000000000000e+00     0.0000000000000000e+00     0.0000000000000000e+00     0.0000000000000000e+00     2.3437500000000000e-02     1.5625000000000000e-02                          0     0.0000000000000000e+00     0.0000000000000000e+00     0.0000000000000000e+00     4.7903591922831823e-29     0.0000000000000000e+00     0.0000000000000000e+00     0.0000000000000000e+00 
    2.8125000000000000e-01    -5.1562500000000000e-01                          3                         52                          0     1.0000000000000000e+00     0.0000000000000000e+00     0.0000000000000000e+00     0.0000000000000000e+00     2.3437500000000000e-02     1.5625000000000000e-02                          0     0.0000000000000000e+00     0.0000000000000000e+00     0.0000000000000000e+00     8.6729251364776345e-30     0.0000000000000000e+00     0.0000000000000000e+00     0.0000000000000000e+00 
    2.9687500000000000e-01    -5.1562500000000000e-01                          3                         53                          0     1.0000000000000000e+00     0.0000000000000000e+00     0.0000000000000000e+00     0.0000000000000000e+00     2.3437500000000000e-02     1.5625000000000000e-02                          0     0.0000000000000000e+00     0.0000000000000000e+00     0.0000000000000000e+00     1.4241362655285980e-30     0.0000000000000000e+00     0.0000000000000000e+00     0.0000000000000000e+00 
    3.1250000000000000e-01    -5.1562500000000000e-01                          3                         54                          0     1.0000000000000000e+00     0.0000000000000000e+00     0.0000000000000000e+00     0.0000000000000000e+00     2.3437500000000000e-02     1.5625000000000000e-02                          0     0.0000000000000000e+00     0.0000000000000000e+00     0.0000000000000000e+00     2.1209279907988454e-31     0.0000000000000000e+00     0.0000000000000000e+00     0.0000000000000000e+00 
    3.2812500000000000e-01    -5.1562500000000000e-01                          3                         55                          0     1.0000000000000000e+00     0.0000000000000000e+00     0.0000000000000000e+00     0.0000000000000000e+00     2.3437500000000000e-02     1.5625000000000000e-02                          0     0.0000000000000000e+00     0.0000000000000000e+00     0.0000000000000000e+00     2.8647632131622825e-32     0.0000000000000000e+00     0.0000000000000000e+00     0.0000000000000000e+00 
    3.4375000000000000e-01    -5.1562500000000000e-01                          3                         56                          0     1.0000000000000000e+00     0.0000000000000000e+00     0.0000000000000000e+00     0.0000000000000000e+00     2.3437500000000000e-02     1.5625000000000000e-02                          0     0.0000000000000000e+00     0.0000000000000000e+00     0.0000000000000000e+00     3.5094573457251888e-33     0.0000000000000000e+00     0.0000000000000000e+00     0.0000000000000000e+00 
    3.5937500000000000e-01    -5.1562500000000000e-01                          3                         57                          0     1.0000000000000000e+00     0.0000000000000000e+00     0.0000000000000000e+00     0.0000000000000000e+00     2.3437500000000000e-02     1.5625000000000000e-02                          0     0.0000000000000000e+00     0.0000000000000000e+00     0.0000000000000000e+00     3.8992370196134742e-34     0.0000000000000000e+00     0.0000000000000000e+00     0.0000000000000000e+00 