VARIABLES= "AXISX" "AXISY" "PID" "ID" "ID2" "DENSITY" "VELOCITYX" "VELOCITYY" "PRESSURE" "SMOOTHLENGTH" "PTSIZE" "IFLAG" "DRHOE" "Fex" "Fey" "EPSILON" "KAPPA" "RHOE" "RHOEExt" "PHI" "EX" "EY" "NUMNEIGHBOR" 
ZONE T="EHDBulkRelax step 336" I= 4489, F=POINT
   -5.1562500000000000e-01    -5.1562500000000000e-01                          3                          1                          0     1.0000000000000000e+00     0.0000000000000000e+00     0.0000000000000000e+00     0.0000000000000000e+00     2.3437500000000000e-02     1.5625000000000000e-02                          1     0.0000000000000000e+00     0.0000000000000000e+00     0.0000000000000000e+00     2.0000000000000000e+00     1.0000000000000000e+00     5.1968470181280521e-46     0.0000000000000000e+00    -2.8568449278314548e-08    -1.3857204590588469e-05    -1.3857204596206182e-05                          4 
   -5.0000000000000000e-01    -5.1562500000000000e-01                          3                          2                          0     1.0000000000000000e+00     0.0000000000000000e+00     0.0000000000000000e+00     0.0000000000000000e+00     2.3437500000000000e-02     1.5625000000000000e-02                          1     0.0000000000000000e+00     0.0000000000000000e+00     0.0000000000000000e+00     2.0000000000000000e+00     1.0000000000000000e+00     1.2419839095515808e-44     0.0000000000000000e+00    -1.0969025853150017e-07    -1.6032047927122122e-05    -2.0281315158593204e-05                          7 
   -4.8437500000000000e-01    -5.1562500000000000e-01                          3                          3                          0     1.0000000000000000e+00     0.0000000000000000e+00     0.0000000000000000e+00     0.0000000000000000e+00     2.3437500000000000e-02     1.5625000000000000e-02                          1     0.0000000000000000e+00     0.0000000000000000e+00     0.0000000000000000e+00     2.0000000000000000e+00     1.0000000000000000e+00     2.6920333508712477e-43     0.0000000000000000e+00    -2.6429044594034259e-07    -1.8341947939367172e-05    -2.7034616757404966e-05                          9 
   -4.6875000000000000e-01    -5.1562500000000000e-01                          3                          4                          0     1.0000000000000000e+00     0.0000000000000000e+00     0.0000000000000000e+00     0.0000000000000000e+00     2.3437500000000000e-02     1.5625000000000000e-02                          1     0.0000000000000000e+00     0.0000000000000000e+00     0.0000000000000000e+00     2.0000000000000000e+00     1.0000000000000000e+00     5.2921644624229060e-42     0.0000000000000000e+00    -5.1575786616431957e-07    -2.0023704387211893e-05    -3.6503126448783288e-05                         11 
   -4.5312500000000000e-01    -5.1562500000000000e-01                          3                          5                          0     1.0000000000000000e+00     0.0000000000000000e+00     0.0000000000000000e+00     0.0000000000000000e+00     2.3437500000000000e-02     1.5625000000000000e-02                          1     0.0000000000000000e+00     0.0000000000000000e+00     0.0000000000000000e+00     2.0000000000000000e+00     1.0000000000000000e+00     9.4357115913759205e-41     0.0000000000000000e+00    -7.7497373125555057e-07    -2.0032954513099969e-05    -4.9970958314219575e-05                         11 
   -4.3750000000000000e-01    -5.1562500000000000e-01                          3                          6                          0     1.0000000000000000e+00     0.0000000000000000e+00     0.0000000000000000e+00     0.0000000000000000e+00     2.3437500000000000e-02     1.5625000000000000e-02                          1     0.0000000000000000e+00     0.0000000000000000e+00     0.0000000000000000e+00     2.0000000000000000e+00     1.0000000000000000e+00     1.5258239003839757e-39     0.0000000000000000e+00    -1.0335395218050968e-06    -1.9977396433124838e-05    -6.6191857011899466e-05                         11 
   -4.2187500000000000e-01    -5.1562500000000000e-01                          3                          7                          0     1.0000000000000000e+00     0.0000000000000000e+00     0.0000000000000000e+00     0.0000000000000000e+00     2.3437500000000000e-02     1.5625000000000000e-02                          1     0.0000000000000000e+00     0.0000000000000000e+00     0.0000000000000000e+00     2.0000000000000000e+00     1.0000000000000000e+00     2.2378068476209015e-38     0.0000000000000000e+00    -1.2918458064872049e-06    -1.9958307630943808e-05    -8.2740305604388635e-05                         11 
   -4.0625000000000000e-01    -5.1562500000000000e-01                          3                          8                          0     1.0000000000000000e+00     0.0000000000000000e+00     0.0000000000000000e+00     0.0000000000000000e+00     2.3437500000000000e-02     1.5625000000000000e-02                          1     0.0000000000000000e+00     0.0000000000000000e+00     0.0000000000000000e+00     2.0000000000000000e+00     1.0000000000000000e+00     2.9766598742131891e-37     0.0000000000000000e+00    -1.5499129442559106e-06    -1.9935646285630703e-05    -9.9269365805563698e-05                         11 
   -3.9062500000000000e-01    -5.1562500000000000e-01                          3                          9                          0     1.0000000000000000e+00     0.0000000000000000e+00     0.0000000000000000e+00     0.0000000000000000e+00     2.3437500000000000e-02     1.5625000000000000e-02                          1     0.0000000000000000e+00     0.0000000000000000e+00     0.0000000000000000e+00     2.0000000000000000e+00     1.0000000000000000e+00     3.5910731972878220e-36     0.0000000000000000e+00    -1.8076368455417618e-06    -1.9902188362260831e-05    -1.1577757631944575e-04                         11 
   -3.7500000000000000e-01    -5.1562500000000000e-01                          3                         10                          0     1.0000000000000000e+00     0.0000000000000000e+00     0.0000000000000000e+00     0.0000000000000000e+00     2.3437500000000000e-02     1.5625000000000000e-02                          1     0.0000000000000000e+00     0.0000000000000000e+00     0.0000000000000000e+00     2.0000000000000000e+00     1.0000000000000000e+00     3.9292325351558395e-35     0.0000000000000000e+00    -2.0648409891779579e-06    -1.9852550186030004e-05    -1.3225331312641023e-04                         11 
   -3.5937500000000000e-01    -5.1562500000000000e-01                          3                         11                          0     1.0000000000000000e+00     0.0000000000000000e+00     0.0000000000000000e+00     0.0000000000000000e+00     2.3437500000000000e-02     1.5625000000000000e-02                          1     0.0000000000000000e+00     0.0000000000000000e+00     0.0000000000000000e+00     2.0000000000000000e+00     1.0000000000000000e+00     3.8992370196134742e-34     0.0000000000000000e+00    -2.3212828728659716e-06    -1.9781450806528242e-05    -1.4868108191316753e-04                         11 
   -3.4375000000000000e-01    -5.1562500000000000e-01                          3                         12                          0     1.0000000000000000e+00     0.0000000000000000e+00     0.0000000000000000e+00     0.0000000000000000e+00     2.3437500000000000e-02     1.5625000000000000e-02                          1     0.0000000000000000e+00     0.0000000000000000e+00     0.0000000000000000e+00     2.0000000000000000e+00     1.0000000000000000e+00     3.5094573457251888e-33     0.0000000000000000e+00    -2.5766498449136309e-06    -1.9683229355187597e-05    -1.6504093044883756e-04                         11 
   -3.2812500000000000e-01    -5.1562500000000000e-01                          3                         13                          0     1.0000000000000000e+00     0.0000000000000000e+00     0.0000000000000000e+00     0.0000000000000000e+00     2.3437500000000000e-02     1.5625000000000000e-02                          1     0.0000000000000000e+00     0.0000000000000000e+00     0.0000000000000000e+00     2.0000000000000000e+00     1.0000000000000000e+00     2.8647632131622825e-32     0.0000000000000000e+00    -2.8305530064940595e-06    -1.9551755402533094e-05    -1.8130802446859881e-04                         11 
   -3.1250000000000000e-01    -5.1562500000000000e-01                          3                         14                          0     1.0000000000000000e+00     0.0000000000000000e+00     0.0000000000000000e+00     0.0000000000000000e+00     2.3437500000000000e-02     1.5625000000000000e-02                          1     0.0000000000000000e+00     0.0000000000000000e+00     0.0000000000000000e+00     2.0000000000000000e+00     1.0000000000000000e+00     2.1209279907988454e-31     0.0000000000000000e+00    -3.0825210978756139e-06    -1.9380455328982483e-05    -1.9745224625348996e-04                         11 
   -2.9687500000000000e-01    -5.1562500000000000e-01                          3                         15                          0     1.0000000000000000e+00     0.0000000000000000e+00     0.0000000000000000e+00     0.0000000000000000e+00     2.3437500000000000e-02     1.5625000000000000e-02                          1     0.0000000000000000e+00     0.0000000000000000e+00     0.0000000000000000e+00     2.0000000000000000e+00     1.0000000000000000e+00     1.4241362655285980e-30     0.0000000000000000e+00    -3.3319951165229896e-06    -1.9162386141121110e-05    -2.1343784421645637e-04                         11 
   -2.8125000000000000e-01    -5.1562500000000000e-01                          3                         16                          0     1.0000000000000000e+00     0.0000000000000000e+00     0.0000000000000000e+00     0.0000000000000000e+00     2.3437500000000000e-02     1.5625000000000000e-02                          1     0.0000000000000000e+00     0.0000000000000000e+00     0.0000000000000000e+00     2.0000000000000000e+00     1.0000000000000000e+00     8.6729251364776345e-30     0.0000000000000000e+00    -3.5783241242450775e-06    -1.8890342260728413e-05    -2.2922315972097323e-04                         11 
   -2.6562500000000000e-01    -5.1562500000000000e-01                          3                         17                          0     1.0000000000000000e+00     0.0000000000000000e+00     0.0000000000000000e+00     0.0000000000000000e+00     2.3437500000000000e-02     1.5625000000000000e-02                          1     0.0000000000000000e+00     0.0000000000000000e+00     0.0000000000000000e+00     2.0000000000000000e+00     1.0000000000000000e+00     4.7903591922831823e-29     0.0000000000000000e+00    -3.8207626335965706e-06    -1.8556991970353911e-05    -2.4476045504923804e-04                         11 
   -2.5000000000000000e-01    -5.1562500000000000e-01                          3                         18                          0     1.0000000000000000e+00     0.0000000000000000e+00     0.0000000000000000e+00     0.0000000000000000e+00     2.3437500000000000e-02     1.5625000000000000e-02                          1     0.0000000000000000e+00     0.0000000000000000e+00     0.0000000000000000e+00     2.0000000000000000e+00     1.0000000000000000e+00     2.3997112642490189e-28     0.0000000000000000e+00    -4.0584699484193000e-06    -1.8155042787518301e-05    -2.5999586652585412e-04                         11 
   -2.3437500000000000e-01    -5.1562500000000000e-01                          3                         19                          0     1.0000000000000000e+00     0.0000000000000000e+00     0.0000000000000000e+00     0.0000000000000000e+00     2.3437500000000000e-02     1.5625000000000000e-02                          1     0.0000000000000000e+00     0.0000000000000000e+00     0.0000000000000000e+00     2.0000000000000000e+00     1.0000000000000000e+00     1.0902807161640972e-27     0.0000000000000000e+00    -4.2905118279479345e-06    -1.7677434916765661e-05    -2.7486950698518697e-04                         11 
   -2.1875000000000000e-01    -5.1562500000000000e-01                          3                         20                          0     1.0000000000000000e+00     0.0000000000000000e+00     0.0000000000000000e+00     0.0000000000000000e+00     2.3437500000000000e-02     1.5625000000000000e-02                          1     0.0000000000000000e+00     0.0000000000000000e+00     0.0000000000000000e+00     2.0000000000000000e+00     1.0000000000000000e+00     4.4926863607036548e-27     0.0000000000000000e+00    -4.5158648309943649e-06    -1.7117560603738580e-05    -2.8931574020744883e-04                         11 
   -2.0312500000000000e-01    -5.1562500000000000e-01                          3                         21                          0     1.0000000000000000e+00     0.0000000000000000e+00     0.0000000000000000e+00     0.0000000000000000e+00     2.3437500000000000e-02     1.5625000000000000e-02                          1     0.0000000000000000e+00     0.0000000000000000e+00     0.0000000000000000e+00     2.0000000000000000e+00     1.0000000000000000e+00     1.6790448655790970e-26     0.0000000000000000e+00    -4.7334236582504222e-06    -1.6469505246342974e-05    -3.0326364829401457e-04                         11 
   -1.8750000000000000e-01    -5.1562500000000000e-01                          3                         22                          0     1.0000000000000000e+00     0.0000000000000000e+00     0.0000000000000000e+00     0.0000000000000000e+00     2.3437500000000000e-02     1.5625000000000000e-02                          1     0.0000000000000000e+00     0.0000000000000000e+00     0.0000000000000000e+00     2.0000000000000000e+00     1.0000000000000000e+00     5.6912403981885556e-26     0.0000000000000000e+00    -4.9420117398210441e-06    -1.5728303744848659e-05    -3.1663770784101300e-04                         11 
   -1.7187500000000000e-01    -5.1562500000000000e-01                          3                         23                          0     1.0000000000000000e+00     0.0000000000000000e+00     0.0000000000000000e+00     0.0000000000000000e+00     2.3437500000000000e-02     1.5625000000000000e-02                          1     0.0000000000000000e+00     0.0000000000000000e+00     0.0000000000000000e+00     2.0000000000000000e+00     1.0000000000000000e+00     1.7496049140698377e-25     0.0000000000000000e+00    -5.1403952134895497e-06    -1.4890203073010002e-05    -3.2935868512134234e-04                         11 
   -1.5625000000000000e-01    -5.1562500000000000e-01                          3                         24                          0     1.0000000000000000e+00     0.0000000000000000e+00     0.0000000000000000e+00     0.0000000000000000e+00     2.3437500000000000e-02     1.5625000000000000e-02                          1     0.0000000000000000e+00     0.0000000000000000e+00     0.0000000000000000e+00     2.0000000000000000e+00     1.0000000000000000e+00     4.8782210812073755e-25     0.0000000000000000e+00    -5.3273003081726300e-06    -1.3952919620302292e-05    -3.4134475129118165e-04                         11 
   -1.4062500000000000e-01    -5.1562500000000000e-01                          3                         25                          0     1.0000000000000000e+00     0.0000000000000000e+00     0.0000000000000000e+00     0.0000000000000000e+00     2.3437500000000000e-02     1.5625000000000000e-02                          1     0.0000000000000000e+00     0.0000000000000000e+00     0.0000000000000000e+00     2.0000000000000000e+00     1.0000000000000000e+00     1.2335915821390160e-24     0.0000000000000000e+00    -5.5014339850376094e-06    -1.2915877703060223e-05    -3.5251280854468300e-04                         11 
   -1.2500000000000000e-01    -5.1562500000000000e-01                          3                         26                          0     1.0000000000000000e+00     0.0000000000000000e+00     0.0000000000000000e+00     0.0000000000000000e+00     2.3437500000000000e-02     1.5625000000000000e-02                          1     0.0000000000000000e+00     0.0000000000000000e+00     0.0000000000000000e+00     2.0000000000000000e+00     1.0000000000000000e+00     2.8292397115623689e-24     0.0000000000000000e+00    -5.6615074993492284e-06    -1.1780414142717332e-05    -3.6278000557240565e-04                         11 
   -1.0937500000000000e-01    -5.1562500000000000e-01                          3                         27                          0     1.0000000000000000e+00     0.0000000000000000e+00     0.0000000000000000e+00     0.0000000000000000e+00     2.3437500000000000e-02     1.5625000000000000e-02                          1     0.0000000000000000e+00     0.0000000000000000e+00     0.0000000000000000e+00     2.0000000000000000e+00     1.0000000000000000e+00     5.8851362652908802e-24     0.0000000000000000e+00    -5.8062623416525443e-06    -1.0549933258330492e-05    -3.7206540799922434e-04                         11 
   -9.3750000000000000e-02    -5.1562500000000000e-01                          3                         28                          0     1.0000000000000000e+00     0.0000000000000000e+00     0.0000000000000000e+00     0.0000000000000000e+00     2.3437500000000000e-02     1.5625000000000000e-02                          1     0.0000000000000000e+00     0.0000000000000000e+00     0.0000000000000000e+00     2.0000000000000000e+00     1.0000000000000000e+00     1.1102779897159669e-23     0.0000000000000000e+00    -5.9344978143487061e-06    -9.2299973012619890e-06    -3.8029177568607396e-04                         11 
   -7.8125000000000000e-02    -5.1562500000000000e-01                          3                         29                          0     1.0000000000000000e+00     0.0000000000000000e+00     0.0000000000000000e+00     0.0000000000000000e+00     2.3437500000000000e-02     1.5625000000000000e-02                          1     0.0000000000000000e+00     0.0000000000000000e+00     0.0000000000000000e+00     2.0000000000000000e+00     1.0000000000000000e+00     1.8997452504702945e-23     0.0000000000000000e+00    -6.0450993164021903e-06    -7.8283394802744312e-06    -3.8738738719638097e-04                         11 
   -6.2500000000000000e-02    -5.1562500000000000e-01                          3                         30                          0     1.0000000000000000e+00     0.0000000000000000e+00     0.0000000000000000e+00     0.0000000000000000e+00     2.3437500000000000e-02     1.5625000000000000e-02                          1     0.0000000000000000e+00     0.0000000000000000e+00     0.0000000000000000e+00     2.0000000000000000e+00     1.0000000000000000e+00     2.9481354571926571e-23     0.0000000000000000e+00    -6.1370662603674438e-06    -6.3547902228610319e-06    -3.9328784185189037e-04                         11 
   -4.6875000000000000e-02    -5.1562500000000000e-01                          3                         31                          0     1.0000000000000000e+00     0.0000000000000000e+00     0.0000000000000000e+00     0.0000000000000000e+00     2.3437500000000000e-02     1.5625000000000000e-02                          1     0.0000000000000000e+00     0.0000000000000000e+00     0.0000000000000000e+00     2.0000000000000000e+00     1.0000000000000000e+00     4.1494251063323423e-23     0.0000000000000000e+00    -6.2095384514053428e-06    -4.8211121623550577e-06    -3.9793776352396688e-04                         11 
   -3.1250000000000000e-02    -5.1562500000000000e-01                          3                         32                          0     1.0000000000000000e+00     0.0000000000000000e+00     0.0000000000000000e+00     0.0000000000000000e+00     2.3437500000000000e-02     1.5625000000000000e-02                          1     0.0000000000000000e+00     0.0000000000000000e+00     0.0000000000000000e+00     2.0000000000000000e+00     1.0000000000000000e+00     5.2968400209910809e-23     0.0000000000000000e+00    -6.2618197346647283e-06    -3.2407451889492581e-06    -4.0129232869456048e-04                         11 
   -1.5625000000000000e-02    -5.1562500000000000e-01                          3                         33                          0     1.0000000000000000e+00     0.0000000000000000e+00     0.0000000000000000e+00     0.0000000000000000e+00     2.3437500000000000e-02     1.5625000000000000e-02                          1     0.0000000000000000e+00     0.0000000000000000e+00     0.0000000000000000e+00     2.0000000000000000e+00     1.0000000000000000e+00     6.1324527657408224e-23     0.0000000000000000e+00    -6.2933977745817748e-06    -1.6284692451041261e-06    -4.0331854511311025e-04                         11 
    0.0000000000000000e+00    -5.1562500000000000e-01                          3                         34                          0     1.0000000000000000e+00     0.0000000000000000e+00     0.0000000000000000e+00     0.0000000000000000e+00     2.3437500000000000e-02     1.5625000000000000e-02                          1     0.0000000000000000e+00     0.0000000000000000e+00     0.0000000000000000e+00     2.0000000000000000e+00     1.0000000000000000e+00     6.4393198403393371e-23     0.0000000000000000e+00    -6.3039589718916653e-06     1.1999113882893255e-12    -4.0399621658514050e-04                         11 
    1.5625000000000000e-02    -5.1562500000000000e-01                          3                         35                          0     1.0000000000000000e+00     0.0000000000000000e+00     0.0000000000000000e+00     0.0000000000000000e+00     2.3437500000000000e-02     1.5625000000000000e-02                          1     0.0000000000000000e+00     0.0000000000000000e+00     0.0000000000000000e+00     2.0000000000000000e+00     1.0000000000000000e+00     6.1324527657408224e-23     0.0000000000000000e+00    -6.2933977436283711e-06     1.6284716348119596e-06    -4.0331854312787292e-04                         11 
    3.1250000000000000e-02    -5.1562500000000000e-01                          3                         36                          0     1.0000000000000000e+00     0.0000000000000000e+00     0.0000000000000000e+00     0.0000000000000000e+00     2.3437500000000000e-02     1.5625000000000000e-02                          1     0.0000000000000000e+00     0.0000000000000000e+00     0.0000000000000000e+00     2.0000000000000000e+00     1.0000000000000000e+00     5.2968400209910809e-23     0.0000000000000000e+00    -6.2618196728637992e-06     3.2407475459161662e-06    -4.0129232473984757e-04                         11 
    4.6875000000000000e-02    -5.1562500000000000e-01                          3                         37                          0     1.0000000000000000e+00     0.0000000000000000e+00     0.0000000000000000e+00     0.0000000000000000e+00     2.3437500000000000e-02     1.5625000000000000e-02                          1     0.0000000000000000e+00     0.0000000000000000e+00     0.0000000000000000e+00     2.0000000000000000e+00     1.0000000000000000e+00     4.1494251063323423e-23     0.0000000000000000e+00    -6.2095383592116180e-06     4.8211144606492989e-06    -3.9793775764823181e-04                         11 
    6.2500000000000000e-02    -5.1562500000000000e-01                          3                         38                          0     1.0000000000000000e+00     0.0000000000000000e+00     0.0000000000000000e+00     0.0000000000000000e+00     2.3437500000000000e-02     1.5625000000000000e-02                          1     0.0000000000000000e+00     0.0000000000000000e+00     0.0000000000000000e+00     2.0000000000000000e+00     1.0000000000000000e+00     2.9481354571926571e-23     0.0000000000000000e+00    -6.1370661389083580e-06     6.3547924374232201e-06    -3.9328783410460014e-04                         11 
    7.8125000000000000e-02    -5.1562500000000000e-01                          3                         39                          0     1.0000000000000000e+00     0.0000000000000000e+00     0.0000000000000000e+00     0.0000000000000000e+00     2.3437500000000000e-02     1.5625000000000000e-02                          1     0.0000000000000000e+00     0.0000000000000000e+00     0.0000000000000000e+00     2.0000000000000000e+00     1.0000000000000000e+00     1.8997452504702945e-23     0.0000000000000000e+00    -6.0450991671898743e-06     7.8283415928043240e-06    -3.8738737763843463e-04                         11 
    9.3750000000000000e-02    -5.1562500000000000e-01                          3                         40                          0     1.0000000000000000e+00     0.0000000000000000e+00     0.0000000000000000e+00     0.0000000000000000e+00     2.3437500000000000e-02     1.5625000000000000e-02                          1     0.0000000000000000e+00     0.0000000000000000e+00     0.0000000000000000e+00     2.0000000000000000e+00     1.0000000000000000e+00     1.1102779897159669e-23     0.0000000000000000e+00    -5.9344976386912913e-06     9.2299992964713456e-06    -3.8029176443067045e-04                         11 
    1.0937500000000000e-01    -5.1562500000000000e-01                          3                         41                          0     1.0000000000000000e+00     0.0000000000000000e+00     0.0000000000000000e+00     0.0000000000000000e+00     2.3437500000000000e-02     1.5625000000000000e-02                          1     0.0000000000000000e+00     0.0000000000000000e+00     0.0000000000000000e+00     2.0000000000000000e+00     1.0000000000000000e+00     5.8851362652908802e-24     0.0000000000000000e+00    -5.8062621407510515e-06     1.0549935117739934e-05    -3.7206539513957930e-04                         11 
    1.2500000000000000e-01    -5.1562500000000000e-01                          3                         42                          0     1.0000000000000000e+00     0.0000000000000000e+00     0.0000000000000000e+00     0.0000000000000000e+00     2.3437500000000000e-02     1.5625000000000000e-02                          1     0.0000000000000000e+00     0.0000000000000000e+00     0.0000000000000000e+00     2.0000000000000000e+00     1.0000000000000000e+00     2.8292397115623689e-24     0.0000000000000000e+00    -5.6615072748709056e-06     1.1780415840461236e-05    -3.6277999123777527e-04                         11 
    1.4062500000000000e-01    -5.1562500000000000e-01                          3                         43                          0     1.0000000000000000e+00     0.0000000000000000e+00     0.0000000000000000e+00     0.0000000000000000e+00     2.3437500000000000e-02     1.5625000000000000e-02                          1     0.0000000000000000e+00     0.0000000000000000e+00     0.0000000000000000e+00     2.0000000000000000e+00     1.0000000000000000e+00     1.2335915821390160e-24     0.0000000000000000e+00    -5.5014337397331130e-06     1.2915879216499186e-05    -3.5251279286527195e-04                         11 
    1.5625000000000000e-01    -5.1562500000000000e-01                          3                         44                          0     1.0000000000000000e+00     0.0000000000000000e+00     0.0000000000000000e+00     0.0000000000000000e+00     2.3437500000000000e-02     1.5625000000000000e-02                          1     0.0000000000000000e+00     0.0000000000000000e+00     0.0000000000000000e+00     2.0000000000000000e+00     1.0000000000000000e+00     4.8782210812073755e-25     0.0000000000000000e+00    -5.3273000452263432e-06     1.3952920940108369e-05    -3.4134473444762017e-04                         11 
    1.7187500000000000e-01    -5.1562500000000000e-01                          3                         45                          0     1.0000000000000000e+00     0.0000000000000000e+00     0.0000000000000000e+00     0.0000000000000000e+00     2.3437500000000000e-02     1.5625000000000000e-02                          1     0.0000000000000000e+00     0.0000000000000000e+00     0.0000000000000000e+00     2.0000000000000000e+00     1.0000000000000000e+00     1.7496049140698377e-25     0.0000000000000000e+00    -5.1403949352669957e-06     1.4890204198232948e-05    -3.2935866725036285e-04                         11 
    1.8750000000000000e-01    -5.1562500000000000e-01                          3                         46                          0     1.0000000000000000e+00     0.0000000000000000e+00     0.0000000000000000e+00     0.0000000000000000e+00     2.3437500000000000e-02     1.5625000000000000e-02                          1     0.0000000000000000e+00     0.0000000000000000e+00     0.0000000000000000e+00     2.0000000000000000e+00     1.0000000000000000e+00     5.6912403981885556e-26     0.0000000000000000e+00    -4.9420114477447825e-06     1.5728304668993660e-05    -3.1663768913475294e-04                         11 
    2.0312500000000000e-01    -5.1562500000000000e-01                          3                         47                          0     1.0000000000000000e+00     0.0000000000000000e+00     0.0000000000000000e+00     0.0000000000000000e+00     2.3437500000000000e-02     1.5625000000000000e-02                          1     0.0000000000000000e+00     0.0000000000000000e+00     0.0000000000000000e+00     2.0000000000000000e+00     1.0000000000000000e+00     1.6790448655790970e-26     0.0000000000000000e+00    -4.7334233544702812e-06     1.6469505946923369e-05    -3.0326362892676680e-04                         11 