VARIABLES= "AXISX" "AXISY" "PID" "ID" "ID2" "DENSITY" "VELOCITYX" "VELOCITYY" "PRESSURE" "SMOOTHLENGTH" "PTSIZE" "IFLAG" "DRHOE" "Fex" "Fey" "EPSILON" "KAPPA" "RHOE" "RHOEExt" "PHI" "EX" "EY" "NUMNEIGHBOR" 
ZONE T="EHDBulkRelax step 76" I= 4489, F=POINT
   -5.1562500000000000e-01    -5.1562500000000000e-01                          3                          1                          0     1.0000000000000000e+00     0.0000000000000000e+00     0.0000000000000000e+00     0.0000000000000000e+00     2.3437500000000000e-02     1.5625000000000000e-02                          1     0.0000000000000000e+00     0.0000000000000000e+00     0.0000000000000000e+00     2.0000000000000000e+00     1.0000000000000000e+00     5.1968470181280521e-46     0.0000000000000000e+00    -7.2209595773447125e-07    -3.5025462247290345e-04    -3.5025462246861689e-04                          4 
   -5.0000000000000000e-01    -5.1562500000000000e-01                          3                          2                          0     1.0000000000000000e+00     0.0000000000000000e+00     0.0000000000000000e+00     0.0000000000000000e+00     2.3437500000000000e-02     1.5625000000000000e-02                          1     0.0000000000000000e+00     0.0000000000000000e+00     0.0000000000000000e+00     2.0000000000000000e+00     1.0000000000000000e+00     1.2419839095515808e-44     0.0000000000000000e+00    -2.7725303365854548e-06    -4.0522595012772020e-04    -5.1263040365089052e-04                          7 
   -4.8437500000000000e-01    -5.1562500000000000e-01                          3                          3                          0     1.0000000000000000e+00     0.0000000000000000e+00     0.0000000000000000e+00     0.0000000000000000e+00     2.3437500000000000e-02     1.5625000000000000e-02                          1     0.0000000000000000e+00     0.0000000000000000e+00     0.0000000000000000e+00     2.0000000000000000e+00     1.0000000000000000e+00     2.6920333508712477e-43     0.0000000000000000e+00    -6.6802037761473331e-06    -4.6361096958318028e-04    -6.8332681561053662e-04                          9 
   -4.6875000000000000e-01    -5.1562500000000000e-01                          3                          4                          0     1.0000000000000000e+00     0.0000000000000000e+00     0.0000000000000000e+00     0.0000000000000000e+00     2.3437500000000000e-02     1.5625000000000000e-02                          1     0.0000000000000000e+00     0.0000000000000000e+00     0.0000000000000000e+00     2.0000000000000000e+00     1.0000000000000000e+00     5.2921644624229060e-42     0.0000000000000000e+00    -1.3036292834843722e-05    -5.0611903612428984e-04    -9.2265281171186801e-04                         11 
   -4.5312500000000000e-01    -5.1562500000000000e-01                          3                          5                          0     1.0000000000000000e+00     0.0000000000000000e+00     0.0000000000000000e+00     0.0000000000000000e+00     2.3437500000000000e-02     1.5625000000000000e-02                          1     0.0000000000000000e+00     0.0000000000000000e+00     0.0000000000000000e+00     2.0000000000000000e+00     1.0000000000000000e+00     9.4357115913759205e-41     0.0000000000000000e+00    -1.9588231545806945e-05    -5.0635284292305217e-04    -1.2630656522938481e-03                         11 
   -4.3750000000000000e-01    -5.1562500000000000e-01                          3                          6                          0     1.0000000000000000e+00     0.0000000000000000e+00     0.0000000000000000e+00     0.0000000000000000e+00     2.3437500000000000e-02     1.5625000000000000e-02                          1     0.0000000000000000e+00     0.0000000000000000e+00     0.0000000000000000e+00     2.0000000000000000e+00     1.0000000000000000e+00     1.5258239003839757e-39     0.0000000000000000e+00    -2.6123738976974211e-05    -5.0494855838578256e-04    -1.6730649950014616e-03                         11 
   -4.2187500000000000e-01    -5.1562500000000000e-01                          3                          7                          0     1.0000000000000000e+00     0.0000000000000000e+00     0.0000000000000000e+00     0.0000000000000000e+00     2.3437500000000000e-02     1.5625000000000000e-02                          1     0.0000000000000000e+00     0.0000000000000000e+00     0.0000000000000000e+00     2.0000000000000000e+00     1.0000000000000000e+00     2.2378068476209015e-38     0.0000000000000000e+00    -3.2652687153243159e-05    -5.0446607164180573e-04    -2.0913434881221138e-03                         11 
   -4.0625000000000000e-01    -5.1562500000000000e-01                          3                          8                          0     1.0000000000000000e+00     0.0000000000000000e+00     0.0000000000000000e+00     0.0000000000000000e+00     2.3437500000000000e-02     1.5625000000000000e-02                          1     0.0000000000000000e+00     0.0000000000000000e+00     0.0000000000000000e+00     2.0000000000000000e+00     1.0000000000000000e+00     2.9766598742131891e-37     0.0000000000000000e+00    -3.9175590694381345e-05    -5.0389328585067922e-04    -2.5091319217356595e-03                         11 
   -3.9062500000000000e-01    -5.1562500000000000e-01                          3                          9                          0     1.0000000000000000e+00     0.0000000000000000e+00     0.0000000000000000e+00     0.0000000000000000e+00     2.3437500000000000e-02     1.5625000000000000e-02                          1     0.0000000000000000e+00     0.0000000000000000e+00     0.0000000000000000e+00     2.0000000000000000e+00     1.0000000000000000e+00     3.5910731972878220e-36     0.0000000000000000e+00    -4.5689818636306397e-05    -5.0304760599015255e-04    -2.9263933608444457e-03                         11 
   -3.7500000000000000e-01    -5.1562500000000000e-01                          3                         10                          0     1.0000000000000000e+00     0.0000000000000000e+00     0.0000000000000000e+00     0.0000000000000000e+00     2.3437500000000000e-02     1.5625000000000000e-02                          1     0.0000000000000000e+00     0.0000000000000000e+00     0.0000000000000000e+00     2.0000000000000000e+00     1.0000000000000000e+00     3.9292325351558395e-35     0.0000000000000000e+00    -5.2190909205953622e-05    -5.0179295424943775e-04    -3.3428339968575955e-03                         11 
   -3.5937500000000000e-01    -5.1562500000000000e-01                          3                         11                          0     1.0000000000000000e+00     0.0000000000000000e+00     0.0000000000000000e+00     0.0000000000000000e+00     2.3437500000000000e-02     1.5625000000000000e-02                          1     0.0000000000000000e+00     0.0000000000000000e+00     0.0000000000000000e+00     2.0000000000000000e+00     1.0000000000000000e+00     3.8992370196134742e-34     0.0000000000000000e+00    -5.8672732911060587e-05    -4.9999584955588055e-04    -3.7580621957535847e-03                         11 
   -3.4375000000000000e-01    -5.1562500000000000e-01                          3                         12                          0     1.0000000000000000e+00     0.0000000000000000e+00     0.0000000000000000e+00     0.0000000000000000e+00     2.3437500000000000e-02     1.5625000000000000e-02                          1     0.0000000000000000e+00     0.0000000000000000e+00     0.0000000000000000e+00     2.0000000000000000e+00     1.0000000000000000e+00     3.5094573457251888e-33     0.0000000000000000e+00    -6.5127387201830672e-05    -4.9751320793858984e-04    -4.1715736452418752e-03                         11 
   -3.2812500000000000e-01    -5.1562500000000000e-01                          3                         13                          0     1.0000000000000000e+00     0.0000000000000000e+00     0.0000000000000000e+00     0.0000000000000000e+00     2.3437500000000000e-02     1.5625000000000000e-02                          1     0.0000000000000000e+00     0.0000000000000000e+00     0.0000000000000000e+00     2.0000000000000000e+00     1.0000000000000000e+00     2.8647632131622825e-32     0.0000000000000000e+00    -7.1545042292825553e-05    -4.9419007652591758e-04    -4.5827406350067799e-03                         11 
   -3.1250000000000000e-01    -5.1562500000000000e-01                          3                         14                          0     1.0000000000000000e+00     0.0000000000000000e+00     0.0000000000000000e+00     0.0000000000000000e+00     2.3437500000000000e-02     1.5625000000000000e-02                          1     0.0000000000000000e+00     0.0000000000000000e+00     0.0000000000000000e+00     2.0000000000000000e+00     1.0000000000000000e+00     2.1209279907988454e-31     0.0000000000000000e+00    -7.7913786604661816e-05    -4.8986030020612217e-04    -4.9908019092807180e-03                         11 
   -2.9687500000000000e-01    -5.1562500000000000e-01                          3                         15                          0     1.0000000000000000e+00     0.0000000000000000e+00     0.0000000000000000e+00     0.0000000000000000e+00     2.3437500000000000e-02     1.5625000000000000e-02                          1     0.0000000000000000e+00     0.0000000000000000e+00     0.0000000000000000e+00     2.0000000000000000e+00     1.0000000000000000e+00     1.4241362655285980e-30     0.0000000000000000e+00    -8.4219490772489584e-05    -4.8434838792732574e-04    -5.3948538120292371e-03                         11 
   -2.8125000000000000e-01    -5.1562500000000000e-01                          3                         16                          0     1.0000000000000000e+00     0.0000000000000000e+00     0.0000000000000000e+00     0.0000000000000000e+00     2.3437500000000000e-02     1.5625000000000000e-02                          1     0.0000000000000000e+00     0.0000000000000000e+00     0.0000000000000000e+00     2.0000000000000000e+00     1.0000000000000000e+00     8.6729251364776345e-30     0.0000000000000000e+00    -9.0445701701824486e-05    -4.7747221178903005e-04    -5.7938433792396778e-03                         11 
   -2.6562500000000000e-01    -5.1562500000000000e-01                          3                         17                          0     1.0000000000000000e+00     0.0000000000000000e+00     0.0000000000000000e+00     0.0000000000000000e+00     2.3437500000000000e-02     1.5625000000000000e-02                          1     0.0000000000000000e+00     0.0000000000000000e+00     0.0000000000000000e+00     2.0000000000000000e+00     1.0000000000000000e+00     4.7903591922831823e-29     0.0000000000000000e+00    -9.6573576477037342e-05    -4.6904645517745560e-04    -6.1865639922685529e-03                         11 
   -2.5000000000000000e-01    -5.1562500000000000e-01                          3                         18                          0     1.0000000000000000e+00     0.0000000000000000e+00     0.0000000000000000e+00     0.0000000000000000e+00     2.3437500000000000e-02     1.5625000000000000e-02                          1     0.0000000000000000e+00     0.0000000000000000e+00     0.0000000000000000e+00     2.0000000000000000e+00     1.0000000000000000e+00     2.3997112642490189e-28     0.0000000000000000e+00    -1.0258186565630511e-04    -4.5888679308635368e-04    -6.5716541940401968e-03                         11 
   -2.3437500000000000e-01    -5.1562500000000000e-01                          3                         19                          0     1.0000000000000000e+00     0.0000000000000000e+00     0.0000000000000000e+00     0.0000000000000000e+00     2.3437500000000000e-02     1.5625000000000000e-02                          1     0.0000000000000000e+00     0.0000000000000000e+00     0.0000000000000000e+00     2.0000000000000000e+00     1.0000000000000000e+00     1.0902807161640972e-27     0.0000000000000000e+00    -1.0844695535006915e-04    -4.4681478209256369e-04    -6.9476002756569330e-03                         11 
   -2.1875000000000000e-01    -5.1562500000000000e-01                          3                         20                          0     1.0000000000000000e+00     0.0000000000000000e+00     0.0000000000000000e+00     0.0000000000000000e+00     2.3437500000000000e-02     1.5625000000000000e-02                          1     0.0000000000000000e+00     0.0000000000000000e+00     0.0000000000000000e+00     2.0000000000000000e+00     1.0000000000000000e+00     4.4926863607036548e-27     0.0000000000000000e+00    -1.1414297706525614e-04    -4.3266340478877342e-04    -7.3127432169950001e-03                         11 
   -2.0312500000000000e-01    -5.1562500000000000e-01                          3                         21                          0     1.0000000000000000e+00     0.0000000000000000e+00     0.0000000000000000e+00     0.0000000000000000e+00     2.3437500000000000e-02     1.5625000000000000e-02                          1     0.0000000000000000e+00     0.0000000000000000e+00     0.0000000000000000e+00     2.0000000000000000e+00     1.0000000000000000e+00     1.6790448655790970e-26     0.0000000000000000e+00    -1.1964199328081787e-04    -4.1628316377525604e-04    -7.6652904973759407e-03                         11 
   -1.8750000000000000e-01    -5.1562500000000000e-01                          3                         22                          0     1.0000000000000000e+00     0.0000000000000000e+00     0.0000000000000000e+00     0.0000000000000000e+00     2.3437500000000000e-02     1.5625000000000000e-02                          1     0.0000000000000000e+00     0.0000000000000000e+00     0.0000000000000000e+00     2.0000000000000000e+00     1.0000000000000000e+00     5.6912403981885556e-26     0.0000000000000000e+00    -1.2491426502379656e-04    -3.9754856097110600e-04    -8.0033331865872852e-03                         11 
   -1.7187500000000000e-01    -5.1562500000000000e-01                          3                         23                          0     1.0000000000000000e+00     0.0000000000000000e+00     0.0000000000000000e+00     0.0000000000000000e+00     2.3437500000000000e-02     1.5625000000000000e-02                          1     0.0000000000000000e+00     0.0000000000000000e+00     0.0000000000000000e+00     2.0000000000000000e+00     1.0000000000000000e+00     1.7496049140698377e-25     0.0000000000000000e+00    -1.2992860517589496e-04    -3.7636473471404646e-04    -8.3248685746853714e-03                         11 
   -1.5625000000000000e-01    -5.1562500000000000e-01                          3                         24                          0     1.0000000000000000e+00     0.0000000000000000e+00     0.0000000000000000e+00     0.0000000000000000e+00     2.3437500000000000e-02     1.5625000000000000e-02                          1     0.0000000000000000e+00     0.0000000000000000e+00     0.0000000000000000e+00     2.0000000000000000e+00     1.0000000000000000e+00     4.8782210812073755e-25     0.0000000000000000e+00    -1.3465281788996490e-04    -3.5267396446890867e-04    -8.6278283538624174e-03                         11 
   -1.4062500000000000e-01    -5.1562500000000000e-01                          3                         25                          0     1.0000000000000000e+00     0.0000000000000000e+00     0.0000000000000000e+00     0.0000000000000000e+00     2.3437500000000000e-02     1.5625000000000000e-02                          1     0.0000000000000000e+00     0.0000000000000000e+00     0.0000000000000000e+00     2.0000000000000000e+00     1.0000000000000000e+00     1.2335915821390160e-24     0.0000000000000000e+00    -1.3905422032600953e-04    -3.2646169947919695e-04    -8.9101121452287262e-03                         11 
   -1.2500000000000000e-01    -5.1562500000000000e-01                          3                         26                          0     1.0000000000000000e+00     0.0000000000000000e+00     0.0000000000000000e+00     0.0000000000000000e+00     2.3437500000000000e-02     1.5625000000000000e-02                          1     0.0000000000000000e+00     0.0000000000000000e+00     0.0000000000000000e+00     2.0000000000000000e+00     1.0000000000000000e+00     2.8292397115623689e-24     0.0000000000000000e+00    -1.4310023818754676e-04    -2.9776172922098851e-04    -9.1696257990740316e-03                         11 
   -1.0937500000000000e-01    -5.1562500000000000e-01                          3                         27                          0     1.0000000000000000e+00     0.0000000000000000e+00     0.0000000000000000e+00     0.0000000000000000e+00     2.3437500000000000e-02     1.5625000000000000e-02                          1     0.0000000000000000e+00     0.0000000000000000e+00     0.0000000000000000e+00     2.0000000000000000e+00     1.0000000000000000e+00     5.8851362652908802e-24     0.0000000000000000e+00    -1.4675906138922177e-04    -2.6666010106885478e-04    -9.4043236182607369e-03                         11 
   -9.3750000000000000e-02    -5.1562500000000000e-01                          3                         28                          0     1.0000000000000000e+00     0.0000000000000000e+00     0.0000000000000000e+00     0.0000000000000000e+00     2.3437500000000000e-02     1.5625000000000000e-02                          1     0.0000000000000000e+00     0.0000000000000000e+00     0.0000000000000000e+00     2.0000000000000000e+00     1.0000000000000000e+00     1.1102779897159669e-23     0.0000000000000000e+00    -1.5000034108827800e-04    -2.3329740635328808e-04    -9.6122532806601109e-03                         11 
   -7.8125000000000000e-02    -5.1562500000000000e-01                          3                         29                          0     1.0000000000000000e+00     0.0000000000000000e+00     0.0000000000000000e+00     0.0000000000000000e+00     2.3437500000000000e-02     1.5625000000000000e-02                          1     0.0000000000000000e+00     0.0000000000000000e+00     0.0000000000000000e+00     2.0000000000000000e+00     1.0000000000000000e+00     1.8997452504702945e-23     0.0000000000000000e+00    -1.5279590462266210e-04    -1.9786910969130442e-04    -9.7916019551568412e-03                         11 
   -6.2500000000000000e-02    -5.1562500000000000e-01                          3                         30                          0     1.0000000000000000e+00     0.0000000000000000e+00     0.0000000000000000e+00     0.0000000000000000e+00     2.3437500000000000e-02     1.5625000000000000e-02                          1     0.0000000000000000e+00     0.0000000000000000e+00     0.0000000000000000e+00     2.0000000000000000e+00     1.0000000000000000e+00     2.9481354571926571e-23     0.0000000000000000e+00    -1.5512046114762122e-04    -1.6062368504382623e-04    -9.9407418513574979e-03                         11 
   -4.6875000000000000e-02    -5.1562500000000000e-01                          3                         31                          0     1.0000000000000000e+00     0.0000000000000000e+00     0.0000000000000000e+00     0.0000000000000000e+00     2.3437500000000000e-02     1.5625000000000000e-02                          1     0.0000000000000000e+00     0.0000000000000000e+00     0.0000000000000000e+00     2.0000000000000000e+00     1.0000000000000000e+00     4.1494251063323423e-23     0.0000000000000000e+00    -1.5695226838479651e-04    -1.2185844470648972e-04    -1.0058273279387398e-02                         11 
   -3.1250000000000000e-02    -5.1562500000000000e-01                          3                         32                          0     1.0000000000000000e+00     0.0000000000000000e+00     0.0000000000000000e+00     0.0000000000000000e+00     2.3437500000000000e-02     1.5625000000000000e-02                          1     0.0000000000000000e+00     0.0000000000000000e+00     0.0000000000000000e+00     2.0000000000000000e+00     1.0000000000000000e+00     5.2968400209910809e-23     0.0000000000000000e+00    -1.5827373032007496e-04    -8.1913095208015611e-05    -1.0143063282742644e-02                         11 
   -1.5625000000000000e-02    -5.1562500000000000e-01                          3                         33                          0     1.0000000000000000e+00     0.0000000000000000e+00     0.0000000000000000e+00     0.0000000000000000e+00     2.3437500000000000e-02     1.5625000000000000e-02                          1     0.0000000000000000e+00     0.0000000000000000e+00     0.0000000000000000e+00     2.0000000000000000e+00     1.0000000000000000e+00     6.1324527657408224e-23     0.0000000000000000e+00    -1.5907189715355755e-04    -4.1161214290145010e-05    -1.0194277947858975e-02                         11 
    0.0000000000000000e+00    -5.1562500000000000e-01                          3                         34                          0     1.0000000000000000e+00     0.0000000000000000e+00     0.0000000000000000e+00     0.0000000000000000e+00     2.3437500000000000e-02     1.5625000000000000e-02                          1     0.0000000000000000e+00     0.0000000000000000e+00     0.0000000000000000e+00     2.0000000000000000e+00     1.0000000000000000e+00     6.4393198403393371e-23     0.0000000000000000e+00    -1.5933884234432645e-04    -9.8801470931923229e-13    -1.0211406795475615e-02                         11 
    1.5625000000000000e-02    -5.1562500000000000e-01                          3                         35                          0     1.0000000000000000e+00     0.0000000000000000e+00     0.0000000000000000e+00     0.0000000000000000e+00     2.3437500000000000e-02     1.5625000000000000e-02                          1     0.0000000000000000e+00     0.0000000000000000e+00     0.0000000000000000e+00     2.0000000000000000e+00     1.0000000000000000e+00     6.1324527657408224e-23     0.0000000000000000e+00    -1.5907189717560545e-04     4.1161212545284813e-05    -1.0194277949317019e-02                         11 
    3.1250000000000000e-02    -5.1562500000000000e-01                          3                         36                          0     1.0000000000000000e+00     0.0000000000000000e+00     0.0000000000000000e+00     0.0000000000000000e+00     2.3437500000000000e-02     1.5625000000000000e-02                          1     0.0000000000000000e+00     0.0000000000000000e+00     0.0000000000000000e+00     2.0000000000000000e+00     1.0000000000000000e+00     5.2968400209910809e-23     0.0000000000000000e+00    -1.5827373036527429e-04     8.1913093486002590e-05    -1.0143063285395658e-02                         11 
    4.6875000000000000e-02    -5.1562500000000000e-01                          3                         37                          0     1.0000000000000000e+00     0.0000000000000000e+00     0.0000000000000000e+00     0.0000000000000000e+00     2.3437500000000000e-02     1.5625000000000000e-02                          1     0.0000000000000000e+00     0.0000000000000000e+00     0.0000000000000000e+00     2.0000000000000000e+00     1.0000000000000000e+00     4.1494251063323423e-23     0.0000000000000000e+00    -1.5695226845159567e-04     1.2185844302586617e-04    -1.0058273283996982e-02                         11 
    6.2500000000000000e-02    -5.1562500000000000e-01                          3                         38                          0     1.0000000000000000e+00     0.0000000000000000e+00     0.0000000000000000e+00     0.0000000000000000e+00     2.3437500000000000e-02     1.5625000000000000e-02                          1     0.0000000000000000e+00     0.0000000000000000e+00     0.0000000000000000e+00     2.0000000000000000e+00     1.0000000000000000e+00     2.9481354571926571e-23     0.0000000000000000e+00    -1.5512046123641703e-04     1.6062368342487733e-04    -9.9407418565298361e-03                         11 
    7.8125000000000000e-02    -5.1562500000000000e-01                          3                         39                          0     1.0000000000000000e+00     0.0000000000000000e+00     0.0000000000000000e+00     0.0000000000000000e+00     2.3437500000000000e-02     1.5625000000000000e-02                          1     0.0000000000000000e+00     0.0000000000000000e+00     0.0000000000000000e+00     2.0000000000000000e+00     1.0000000000000000e+00     1.8997452504702945e-23     0.0000000000000000e+00    -1.5279590473123733e-04     1.9786910815760124e-04    -9.7916019620177680e-03                         11 
    9.3750000000000000e-02    -5.1562500000000000e-01                          3                         40                          0     1.0000000000000000e+00     0.0000000000000000e+00     0.0000000000000000e+00     0.0000000000000000e+00     2.3437500000000000e-02     1.5625000000000000e-02                          1     0.0000000000000000e+00     0.0000000000000000e+00     0.0000000000000000e+00     2.0000000000000000e+00     1.0000000000000000e+00     1.1102779897159669e-23     0.0000000000000000e+00    -1.5000034121615997e-04     2.3329740489423285e-04    -9.6122532888283929e-03                         11 
    1.0937500000000000e-01    -5.1562500000000000e-01                          3                         41                          0     1.0000000000000000e+00     0.0000000000000000e+00     0.0000000000000000e+00     0.0000000000000000e+00     2.3437500000000000e-02     1.5625000000000000e-02                          1     0.0000000000000000e+00     0.0000000000000000e+00     0.0000000000000000e+00     2.0000000000000000e+00     1.0000000000000000e+00     5.8851362652908802e-24     0.0000000000000000e+00    -1.4675906153555483e-04     2.6666009971162752e-04    -9.4043236278690562e-03                         11 
    1.2500000000000000e-01    -5.1562500000000000e-01                          3                         42                          0     1.0000000000000000e+00     0.0000000000000000e+00     0.0000000000000000e+00     0.0000000000000000e+00     2.3437500000000000e-02     1.5625000000000000e-02                          1     0.0000000000000000e+00     0.0000000000000000e+00     0.0000000000000000e+00     2.0000000000000000e+00     1.0000000000000000e+00     2.8292397115623689e-24     0.0000000000000000e+00    -1.4310023835117759e-04     2.9776172798010503e-04    -9.1696258097827103e-03                         11 
    1.4062500000000000e-01    -5.1562500000000000e-01                          3                         43                          0     1.0000000000000000e+00     0.0000000000000000e+00     0.0000000000000000e+00     0.0000000000000000e+00     2.3437500000000000e-02     1.5625000000000000e-02                          1     0.0000000000000000e+00     0.0000000000000000e+00     0.0000000000000000e+00     2.0000000000000000e+00     1.0000000000000000e+00     1.2335915821390160e-24     0.0000000000000000e+00    -1.3905422050462210e-04     3.2646169837090787e-04    -8.9101121566234880e-03                         11 
    1.5625000000000000e-01    -5.1562500000000000e-01                          3                         44                          0     1.0000000000000000e+00     0.0000000000000000e+00     0.0000000000000000e+00     0.0000000000000000e+00     2.3437500000000000e-02     1.5625000000000000e-02                          1     0.0000000000000000e+00     0.0000000000000000e+00     0.0000000000000000e+00     2.0000000000000000e+00     1.0000000000000000e+00     4.8782210812073755e-25     0.0000000000000000e+00    -1.3465281808097967e-04     3.5267396351692143e-04    -8.6278283665451767e-03                         11 
    1.7187500000000000e-01    -5.1562500000000000e-01                          3                         45                          0     1.0000000000000000e+00     0.0000000000000000e+00     0.0000000000000000e+00     0.0000000000000000e+00     2.3437500000000000e-02     1.5625000000000000e-02                          1     0.0000000000000000e+00     0.0000000000000000e+00     0.0000000000000000e+00     2.0000000000000000e+00     1.0000000000000000e+00     1.7496049140698377e-25     0.0000000000000000e+00    -1.2992860537768301e-04     3.7636473388847166e-04    -8.3248685875127043e-03                         11 
    1.8750000000000000e-01    -5.1562500000000000e-01                          3                         46                          0     1.0000000000000000e+00     0.0000000000000000e+00     0.0000000000000000e+00     0.0000000000000000e+00     2.3437500000000000e-02     1.5625000000000000e-02                          1     0.0000000000000000e+00     0.0000000000000000e+00     0.0000000000000000e+00     2.0000000000000000e+00     1.0000000000000000e+00     5.6912403981885556e-26     0.0000000000000000e+00    -1.2491426523556938e-04     3.9754856029172042e-04    -8.0033332007660215e-03                         11 
    2.0312500000000000e-01    -5.1562500000000000e-01                          3                         47                          0     1.0000000000000000e+00     0.0000000000000000e+00     0.0000000000000000e+00     0.0000000000000000e+00     2.3437500000000000e-02     1.5625000000000000e-02                          1     0.0000000000000000e+00     0.0000000000000000e+00     0.0000000000000000e+00     2.0000000000000000e+00     1.0000000000000000e+00     1.6790448655790970e-26     0.0000000000000000e+00    -1.1964199350221358e-04     4.1628316327051287e-04    -7.6652905115081015e-03                         11 