VARIABLES= "AXISX" "AXISY" "PID" "ID" "ID2" "DENSITY" "VELOCITYX" "VELOCITYY" "PRESSURE" "SMOOTHLENGTH" "PTSIZE" "IFLAG" "CI" "EEPSILON" "EKAPPA" "ERHOE" "EPHI" "EEX" "EEY" 
ZONE T="EHDBulkRelax step 232" I= 4489, F=POINT
   -5.1562500000000000e-01    -5.1562500000000000e-01                          3                          1                          0     1.0000000000000000e+00     0.0000000000000000e+00     0.0000000000000000e+00     0.0000000000000000e+00     2.3437500000000000e-02     1.5625000000000000e-02                          1     0.0000000000000000e+00     2.0000000000000000e+00     1.0000000000000000e+00     5.1968470181280521e-46    -1.0398482512979132e-07    -5.0438124305815648e-05    -5.0438124317870506e-05 
   -5.0000000000000000e-01    -5.1562500000000000e-01                          3                          2                          0     1.0000000000000000e+00     0.0000000000000000e+00     0.0000000000000000e+00     0.0000000000000000e+00     2.3437500000000000e-02     1.5625000000000000e-02                          1     0.0000000000000000e+00     2.0000000000000000e+00     1.0000000000000000e+00     1.2419839095515808e-44    -3.9925591483813057e-07    -5.8354224408298216e-05    -7.3820913033982805e-05 
   -4.8437500000000000e-01    -5.1562500000000000e-01                          3                          3                          0     1.0000000000000000e+00     0.0000000000000000e+00     0.0000000000000000e+00     0.0000000000000000e+00     2.3437500000000000e-02     1.5625000000000000e-02                          1     0.0000000000000000e+00     2.0000000000000000e+00     1.0000000000000000e+00     2.6920333508712477e-43    -9.6197716371298947e-07    -6.6761910341747412e-05    -9.8401907230613085e-05 
   -4.6875000000000000e-01    -5.1562500000000000e-01                          3                          4                          0     1.0000000000000000e+00     0.0000000000000000e+00     0.0000000000000000e+00     0.0000000000000000e+00     2.3437500000000000e-02     1.5625000000000000e-02                          1     0.0000000000000000e+00     2.0000000000000000e+00     1.0000000000000000e+00     5.2921644624229060e-42    -1.8772804578016929e-06    -7.2883248922135454e-05    -1.3286584733597279e-04 
   -4.5312500000000000e-01    -5.1562500000000000e-01                          3                          5                          0     1.0000000000000000e+00     0.0000000000000000e+00     0.0000000000000000e+00     0.0000000000000000e+00     2.3437500000000000e-02     1.5625000000000000e-02                          1     0.0000000000000000e+00     2.0000000000000000e+00     1.0000000000000000e+00     9.4357115913759205e-41    -2.8207869170190473e-06    -7.2916918015139158e-05    -1.8188671398979575e-04 
   -4.3750000000000000e-01    -5.1562500000000000e-01                          3                          6                          0     1.0000000000000000e+00     0.0000000000000000e+00     0.0000000000000000e+00     0.0000000000000000e+00     2.3437500000000000e-02     1.5625000000000000e-02                          1     0.0000000000000000e+00     2.0000000000000000e+00     1.0000000000000000e+00     1.5258239003839757e-39    -3.7619272034837613e-06    -7.2714695093095585e-05    -2.4092832667812136e-04 
   -4.2187500000000000e-01    -5.1562500000000000e-01                          3                          7                          0     1.0000000000000000e+00     0.0000000000000000e+00     0.0000000000000000e+00     0.0000000000000000e+00     2.3437500000000000e-02     1.5625000000000000e-02                          1     0.0000000000000000e+00     2.0000000000000000e+00     1.0000000000000000e+00     2.2378068476209015e-38    -4.7021229287075389e-06    -7.2645214845214976e-05    -3.0116217138621251e-04 
   -4.0625000000000000e-01    -5.1562500000000000e-01                          3                          8                          0     1.0000000000000000e+00     0.0000000000000000e+00     0.0000000000000000e+00     0.0000000000000000e+00     2.3437500000000000e-02     1.5625000000000000e-02                          1     0.0000000000000000e+00     2.0000000000000000e+00     1.0000000000000000e+00     2.9766598742131891e-37    -5.6414481977958909e-06    -7.2562731110145041e-05    -3.6132544536946138e-04 
   -3.9062500000000000e-01    -5.1562500000000000e-01                          3                          9                          0     1.0000000000000000e+00     0.0000000000000000e+00     0.0000000000000000e+00     0.0000000000000000e+00     2.3437500000000000e-02     1.5625000000000000e-02                          1     0.0000000000000000e+00     2.0000000000000000e+00     1.0000000000000000e+00     3.5910731972878220e-36    -6.5795241405934450e-06    -7.2440949481357677e-05    -4.2141282978582672e-04 
   -3.7500000000000000e-01    -5.1562500000000000e-01                          3                         10                          0     1.0000000000000000e+00     0.0000000000000000e+00     0.0000000000000000e+00     0.0000000000000000e+00     2.3437500000000000e-02     1.5625000000000000e-02                          1     0.0000000000000000e+00     2.0000000000000000e+00     1.0000000000000000e+00     3.9292325351558395e-35    -7.5157082454873904e-06    -7.2260274188978870e-05    -4.8138201493357438e-04 
   -3.5937500000000000e-01    -5.1562500000000000e-01                          3                         11                          0     1.0000000000000000e+00     0.0000000000000000e+00     0.0000000000000000e+00     0.0000000000000000e+00     2.3437500000000000e-02     1.5625000000000000e-02                          1     0.0000000000000000e+00     2.0000000000000000e+00     1.0000000000000000e+00     3.8992370196134742e-34    -8.4491178404519654e-06    -7.2001483385588681e-05    -5.4117660391994832e-04 
   -3.4375000000000000e-01    -5.1562500000000000e-01                          3                         12                          0     1.0000000000000000e+00     0.0000000000000000e+00     0.0000000000000000e+00     0.0000000000000000e+00     2.3437500000000000e-02     1.5625000000000000e-02                          1     0.0000000000000000e+00     2.0000000000000000e+00     1.0000000000000000e+00     3.5094573457251888e-33    -9.3786149226545752e-06    -7.1643972376442161e-05    -6.0072397360057673e-04 
   -3.2812500000000000e-01    -5.1562500000000000e-01                          3                         13                          0     1.0000000000000000e+00     0.0000000000000000e+00     0.0000000000000000e+00     0.0000000000000000e+00     2.3437500000000000e-02     1.5625000000000000e-02                          1     0.0000000000000000e+00     2.0000000000000000e+00     1.0000000000000000e+00     2.8647632131622825e-32    -1.0302783960369082e-05    -7.1165427315542367e-05    -6.5993373110044171e-04 
   -3.1250000000000000e-01    -5.1562500000000000e-01                          3                         14                          0     1.0000000000000000e+00     0.0000000000000000e+00     0.0000000000000000e+00     0.0000000000000000e+00     2.3437500000000000e-02     1.5625000000000000e-02                          1     0.0000000000000000e+00     2.0000000000000000e+00     1.0000000000000000e+00     2.1209279907988454e-31    -1.1219909638382353e-05    -7.0541921204570051e-05    -7.1869625239855866e-04 
   -2.9687500000000000e-01    -5.1562500000000000e-01                          3                         15                          0     1.0000000000000000e+00     0.0000000000000000e+00     0.0000000000000000e+00     0.0000000000000000e+00     2.3437500000000000e-02     1.5625000000000000e-02                          1     0.0000000000000000e+00     2.0000000000000000e+00     1.0000000000000000e+00     1.4241362655285980e-30    -1.2127957271096795e-05    -6.9748182603469180e-05    -7.7688140719794256e-04 
   -2.8125000000000000e-01    -5.1562500000000000e-01                          3                         16                          0     1.0000000000000000e+00     0.0000000000000000e+00     0.0000000000000000e+00     0.0000000000000000e+00     2.3437500000000000e-02     1.5625000000000000e-02                          1     0.0000000000000000e+00     2.0000000000000000e+00     1.0000000000000000e+00     8.6729251364776345e-30    -1.3024557542943089e-05    -6.8757984308709402e-05    -8.3433756441412903e-04 
   -2.6562500000000000e-01    -5.1562500000000000e-01                          3                         17                          0     1.0000000000000000e+00     0.0000000000000000e+00     0.0000000000000000e+00     0.0000000000000000e+00     2.3437500000000000e-02     1.5625000000000000e-02                          1     0.0000000000000000e+00     2.0000000000000000e+00     1.0000000000000000e+00     4.7903591922831823e-29    -1.3906996993995752e-05    -6.7544639974129194e-05    -8.9089096588646638e-04 
   -2.5000000000000000e-01    -5.1562500000000000e-01                          3                         18                          0     1.0000000000000000e+00     0.0000000000000000e+00     0.0000000000000000e+00     0.0000000000000000e+00     2.3437500000000000e-02     1.5625000000000000e-02                          1     0.0000000000000000e+00     2.0000000000000000e+00     1.0000000000000000e+00     2.3997112642490189e-28    -1.4772215616837388e-05    -6.6081606053905635e-05    -9.4634555605731924e-04 
   -2.3437500000000000e-01    -5.1562500000000000e-01                          3                         19                          0     1.0000000000000000e+00     0.0000000000000000e+00     0.0000000000000000e+00     0.0000000000000000e+00     2.3437500000000000e-02     1.5625000000000000e-02                          1     0.0000000000000000e+00     2.0000000000000000e+00     1.0000000000000000e+00     1.0902807161640972e-27    -1.5616812915345330e-05    -6.4343185952957599e-05    -1.0004833547431139e-03 
   -2.1875000000000000e-01    -5.1562500000000000e-01                          3                         20                          0     1.0000000000000000e+00     0.0000000000000000e+00     0.0000000000000000e+00     0.0000000000000000e+00     2.3437500000000000e-02     1.5625000000000000e-02                          1     0.0000000000000000e+00     2.0000000000000000e+00     1.0000000000000000e+00     4.4926863607036548e-27    -1.6437063718755145e-05    -6.2305328468743708e-05    -1.0530654559670672e-03 
   -2.0312500000000000e-01    -5.1562500000000000e-01                          3                         21                          0     1.0000000000000000e+00     0.0000000000000000e+00     0.0000000000000000e+00     0.0000000000000000e+00     2.3437500000000000e-02     1.5625000000000000e-02                          1     0.0000000000000000e+00     2.0000000000000000e+00     1.0000000000000000e+00     1.6790448655790970e-26    -1.7228944906122905e-05    -5.9946505334007642e-05    -1.1038337293662434e-03 
   -1.8750000000000000e-01    -5.1562500000000000e-01                          3                         22                          0     1.0000000000000000e+00     0.0000000000000000e+00     0.0000000000000000e+00     0.0000000000000000e+00     2.3437500000000000e-02     1.5625000000000000e-02                          1     0.0000000000000000e+00     2.0000000000000000e+00     1.0000000000000000e+00     5.6912403981885556e-26    -1.7988173941360347e-05    -5.7248644332218275e-05    -1.1525132811960796e-03 
   -1.7187500000000000e-01    -5.1562500000000000e-01                          3                         23                          0     1.0000000000000000e+00     0.0000000000000000e+00     0.0000000000000000e+00     0.0000000000000000e+00     2.3437500000000000e-02     1.5625000000000000e-02                          1     0.0000000000000000e+00     2.0000000000000000e+00     1.0000000000000000e+00     1.7496049140698377e-25    -1.8710259751740813e-05    -5.4198085006147912e-05    -1.1988157126171671e-03 
   -1.5625000000000000e-01    -5.1562500000000000e-01                          3                         24                          0     1.0000000000000000e+00     0.0000000000000000e+00     0.0000000000000000e+00     0.0000000000000000e+00     2.3437500000000000e-02     1.5625000000000000e-02                          1     0.0000000000000000e+00     2.0000000000000000e+00     1.0000000000000000e+00     4.8782210812073755e-25    -1.9390566002562777e-05    -5.0786515356847012e-05    -1.2424431790368990e-03 
   -1.4062500000000000e-01    -5.1562500000000000e-01                          3                         25                          0     1.0000000000000000e+00     0.0000000000000000e+00     0.0000000000000000e+00     0.0000000000000000e+00     2.3437500000000000e-02     1.5625000000000000e-02                          1     0.0000000000000000e+00     2.0000000000000000e+00     1.0000000000000000e+00     1.2335915821390160e-24    -2.0024386228633081e-05    -4.7011839993108905e-05    -1.2830932170023335e-03 
   -1.2500000000000000e-01    -5.1562500000000000e-01                          3                         26                          0     1.0000000000000000e+00     0.0000000000000000e+00     0.0000000000000000e+00     0.0000000000000000e+00     2.3437500000000000e-02     1.5625000000000000e-02                          1     0.0000000000000000e+00     2.0000000000000000e+00     1.0000000000000000e+00     2.8292397115623689e-24    -2.0607029594908143e-05    -4.2878924745284279e-05    -1.3204642603126236e-03 
   -1.0937500000000000e-01    -5.1562500000000000e-01                          3                         27                          0     1.0000000000000000e+00     0.0000000000000000e+00     0.0000000000000000e+00     0.0000000000000000e+00     2.3437500000000000e-02     1.5625000000000000e-02                          1     0.0000000000000000e+00     2.0000000000000000e+00     1.0000000000000000e+00     5.8851362652908802e-24    -2.1133915317176355e-05    -3.8400160808259847e-05    -1.3542617201266450e-03 
   -9.3750000000000000e-02    -5.1562500000000000e-01                          3                         28                          0     1.0000000000000000e+00     0.0000000000000000e+00     0.0000000000000000e+00     0.0000000000000000e+00     2.3437500000000000e-02     1.5625000000000000e-02                          1     0.0000000000000000e+00     2.0000000000000000e+00     1.0000000000000000e+00     1.1102779897159669e-23    -2.1600673037236115e-05    -3.3595793925980316e-05    -1.3842044539364501e-03 
   -7.8125000000000000e-02    -5.1562500000000000e-01                          3                         29                          0     1.0000000000000000e+00     0.0000000000000000e+00     0.0000000000000000e+00     0.0000000000000000e+00     2.3437500000000000e-02     1.5625000000000000e-02                          1     0.0000000000000000e+00     2.0000000000000000e+00     1.0000000000000000e+00     1.8997452504702945e-23    -2.2003245775548587e-05    -2.8493971812871857e-05    -1.4100314065373099e-03 
   -6.2500000000000000e-02    -5.1562500000000000e-01                          3                         30                          0     1.0000000000000000e+00     0.0000000000000000e+00     0.0000000000000000e+00     0.0000000000000000e+00     2.3437500000000000e-02     1.5625000000000000e-02                          1     0.0000000000000000e+00     2.0000000000000000e+00     1.0000000000000000e+00     2.9481354571926571e-23    -2.2337991545484357e-05    -2.3130475742295121e-05    -1.4315081693558320e-03 
   -4.6875000000000000e-02    -5.1562500000000000e-01                          3                         31                          0     1.0000000000000000e+00     0.0000000000000000e+00     0.0000000000000000e+00     0.0000000000000000e+00     2.3437500000000000e-02     1.5625000000000000e-02                          1     0.0000000000000000e+00     2.0000000000000000e+00     1.0000000000000000e+00     4.1494251063323423e-23    -2.2601779368082752e-05    -1.7548119918449027e-05    -1.4484331814751822e-03 
   -3.1250000000000000e-02    -5.1562500000000000e-01                          3                         32                          0     1.0000000000000000e+00     0.0000000000000000e+00     0.0000000000000000e+00     0.0000000000000000e+00     2.3437500000000000e-02     1.5625000000000000e-02                          1     0.0000000000000000e+00     2.0000000000000000e+00     1.0000000000000000e+00     5.2968400209910809e-23    -2.2792075344875959e-05    -1.1795823501111789e-05    -1.4606432921221743e-03 
   -1.5625000000000000e-02    -5.1562500000000000e-01                          3                         33                          0     1.0000000000000000e+00     0.0000000000000000e+00     0.0000000000000000e+00     0.0000000000000000e+00     2.3437500000000000e-02     1.5625000000000000e-02                          1     0.0000000000000000e+00     2.0000000000000000e+00     1.0000000000000000e+00     6.1324527657408224e-23    -2.2907014651342825e-05    -5.9273832414529321e-06    -1.4680184145874605e-03 
    0.0000000000000000e+00    -5.1562500000000000e-01                          3                         34                          0     1.0000000000000000e+00     0.0000000000000000e+00     0.0000000000000000e+00     0.0000000000000000e+00     2.3437500000000000e-02     1.5625000000000000e-02                          1     0.0000000000000000e+00     2.0000000000000000e+00     1.0000000000000000e+00     6.4393198403393371e-23    -2.2945455833561680e-05     2.5700810787119784e-12    -1.4704850376065350e-03 
    1.5625000000000000e-02    -5.1562500000000000e-01                          3                         35                          0     1.0000000000000000e+00     0.0000000000000000e+00     0.0000000000000000e+00     0.0000000000000000e+00     2.3437500000000000e-02     1.5625000000000000e-02                          1     0.0000000000000000e+00     2.0000000000000000e+00     1.0000000000000000e+00     6.1324527657408224e-23    -2.2907014585128443e-05     5.9273883597281214e-06    -1.4680184102919764e-03 
    3.1250000000000000e-02    -5.1562500000000000e-01                          3                         36                          0     1.0000000000000000e+00     0.0000000000000000e+00     0.0000000000000000e+00     0.0000000000000000e+00     2.3437500000000000e-02     1.5625000000000000e-02                          1     0.0000000000000000e+00     2.0000000000000000e+00     1.0000000000000000e+00     5.2968400209910809e-23    -2.2792075212495064e-05     1.1795828549471958e-05    -1.4606432836833726e-03 
    4.6875000000000000e-02    -5.1562500000000000e-01                          3                         37                          0     1.0000000000000000e+00     0.0000000000000000e+00     0.0000000000000000e+00     0.0000000000000000e+00     2.3437500000000000e-02     1.5625000000000000e-02                          1     0.0000000000000000e+00     2.0000000000000000e+00     1.0000000000000000e+00     4.1494251063323423e-23    -2.2601779170622587e-05     1.7548124841247280e-05    -1.4484331688583946e-03 
    6.2500000000000000e-02    -5.1562500000000000e-01                          3                         38                          0     1.0000000000000000e+00     0.0000000000000000e+00     0.0000000000000000e+00     0.0000000000000000e+00     2.3437500000000000e-02     1.5625000000000000e-02                          1     0.0000000000000000e+00     2.0000000000000000e+00     1.0000000000000000e+00     2.9481354571926571e-23    -2.2337991285375985e-05     2.3130480485642935e-05    -1.4315081527189605e-03 
    7.8125000000000000e-02    -5.1562500000000000e-01                          3                         39                          0     1.0000000000000000e+00     0.0000000000000000e+00     0.0000000000000000e+00     0.0000000000000000e+00     2.3437500000000000e-02     1.5625000000000000e-02                          1     0.0000000000000000e+00     2.0000000000000000e+00     1.0000000000000000e+00     1.8997452504702945e-23    -2.2003245456060411e-05     2.8493976338783526e-05    -1.4100313861367736e-03 
    9.3750000000000000e-02    -5.1562500000000000e-01                          3                         40                          0     1.0000000000000000e+00     0.0000000000000000e+00     0.0000000000000000e+00     0.0000000000000000e+00     2.3437500000000000e-02     1.5625000000000000e-02                          1     0.0000000000000000e+00     2.0000000000000000e+00     1.0000000000000000e+00     1.1102779897159669e-23    -2.1600672661020387e-05     3.3595798201294211e-05    -1.3842044297750745e-03 
    1.0937500000000000e-01    -5.1562500000000000e-01                          3                         41                          0     1.0000000000000000e+00     0.0000000000000000e+00     0.0000000000000000e+00     0.0000000000000000e+00     2.3437500000000000e-02     1.5625000000000000e-02                          1     0.0000000000000000e+00     2.0000000000000000e+00     1.0000000000000000e+00     5.8851362652908802e-24    -2.1133914886735451e-05     3.8400164789646425e-05    -1.3542616925632540e-03 
    1.2500000000000000e-01    -5.1562500000000000e-01                          3                         42                          0     1.0000000000000000e+00     0.0000000000000000e+00     0.0000000000000000e+00     0.0000000000000000e+00     2.3437500000000000e-02     1.5625000000000000e-02                          1     0.0000000000000000e+00     2.0000000000000000e+00     1.0000000000000000e+00     2.8292397115623689e-24    -2.0607029113987674e-05     4.2878928382346095e-05    -1.3204642296075612e-03 
    1.4062500000000000e-01    -5.1562500000000000e-01                          3                         43                          0     1.0000000000000000e+00     0.0000000000000000e+00     0.0000000000000000e+00     0.0000000000000000e+00     2.3437500000000000e-02     1.5625000000000000e-02                          1     0.0000000000000000e+00     2.0000000000000000e+00     1.0000000000000000e+00     1.2335915821390160e-24    -2.0024385703168762e-05     4.7011843233954925e-05    -1.2830931834739616e-03 
    1.5625000000000000e-01    -5.1562500000000000e-01                          3                         44                          0     1.0000000000000000e+00     0.0000000000000000e+00     0.0000000000000000e+00     0.0000000000000000e+00     2.3437500000000000e-02     1.5625000000000000e-02                          1     0.0000000000000000e+00     2.0000000000000000e+00     1.0000000000000000e+00     4.8782210812073755e-25    -1.9390565439336675e-05     5.0786518181812866e-05    -1.2424431429810378e-03 
    1.7187500000000000e-01    -5.1562500000000000e-01                          3                         45                          0     1.0000000000000000e+00     0.0000000000000000e+00     0.0000000000000000e+00     0.0000000000000000e+00     2.3437500000000000e-02     1.5625000000000000e-02                          1     0.0000000000000000e+00     2.0000000000000000e+00     1.0000000000000000e+00     1.7496049140698377e-25    -1.8710259155752253e-05     5.4198087414355592e-05    -1.1988156743353367e-03 
    1.8750000000000000e-01    -5.1562500000000000e-01                          3                         46                          0     1.0000000000000000e+00     0.0000000000000000e+00     0.0000000000000000e+00     0.0000000000000000e+00     2.3437500000000000e-02     1.5625000000000000e-02                          1     0.0000000000000000e+00     2.0000000000000000e+00     1.0000000000000000e+00     5.6912403981885556e-26    -1.7988173315698027e-05     5.7248646312695208e-05    -1.1525132410774843e-03 
    2.0312500000000000e-01    -5.1562500000000000e-01                          3                         47                          0     1.0000000000000000e+00     0.0000000000000000e+00     0.0000000000000000e+00     0.0000000000000000e+00     2.3437500000000000e-02     1.5625000000000000e-02                          1     0.0000000000000000e+00     2.0000000000000000e+00     1.0000000000000000e+00     1.6790448655790970e-26    -1.7228944255450528e-05     5.9946506834796129e-05    -1.1038336878695812e-03 
    2.1875000000000000e-01    -5.1562500000000000e-01                          3                         48                          0     1.0000000000000000e+00     0.0000000000000000e+00     0.0000000000000000e+00     0.0000000000000000e+00     2.3437500000000000e-02     1.5625000000000000e-02                          1     0.0000000000000000e+00     2.0000000000000000e+00     1.0000000000000000e+00     4.4926863607036548e-27    -1.6437063051919113e-05     6.2305329440179232e-05    -1.0530654134670648e-03 
    2.3437500000000000e-01    -5.1562500000000000e-01                          3                         49                          0     1.0000000000000000e+00     0.0000000000000000e+00     0.0000000000000000e+00     0.0000000000000000e+00     2.3437500000000000e-02     1.5625000000000000e-02                          1     0.0000000000000000e+00     2.0000000000000000e+00     1.0000000000000000e+00     1.0902807161640972e-27    -1.5616812242477129e-05     6.4343186402455121e-05    -1.0004833116030452e-03 
    2.5000000000000000e-01    -5.1562500000000000e-01                          3                         50                          0     1.0000000000000000e+00     0.0000000000000000e+00     0.0000000000000000e+00     0.0000000000000000e+00     2.3437500000000000e-02     1.5625000000000000e-02                          1     0.0000000000000000e+00     2.0000000000000000e+00     1.0000000000000000e+00     2.3997112642490189e-28    -1.4772214943578730e-05     6.6081606021556105e-05    -9.4634551279773984e-04 
    2.6562500000000000e-01    -5.1562500000000000e-01                          3                         51                          0     1.0000000000000000e+00     0.0000000000000000e+00     0.0000000000000000e+00     0.0000000000000000e+00     2.3437500000000000e-02     1.5625000000000000e-02                          1     0.0000000000000000e+00     2.0000000000000000e+00     1.0000000000000000e+00     4.7903591922831823e-29    -1.3906996321617246e-05     6.7544639492659865e-05    -8.9089092281639717e-04 
    2.8125000000000000e-01    -5.1562500000000000e-01                          3                         52                          0     1.0000000000000000e+00     0.0000000000000000e+00     0.0000000000000000e+00     0.0000000000000000e+00     2.3437500000000000e-02     1.5625000000000000e-02                          1     0.0000000000000000e+00     2.0000000000000000e+00     1.0000000000000000e+00     8.6729251364776345e-30    -1.3024556875451001e-05     6.8757983340522052e-05    -8.3433752195681229e-04 
    2.9687500000000000e-01    -5.1562500000000000e-01                          3                         53                          0     1.0000000000000000e+00     0.0000000000000000e+00     0.0000000000000000e+00     0.0000000000000000e+00     2.3437500000000000e-02     1.5625000000000000e-02                          1     0.0000000000000000e+00     2.0000000000000000e+00     1.0000000000000000e+00     1.4241362655285980e-30    -1.2127956619717933e-05     6.9748181075298538e-05    -7.7688136578171621e-04 
    3.1250000000000000e-01    -5.1562500000000000e-01                          3                         54                          0     1.0000000000000000e+00     0.0000000000000000e+00     0.0000000000000000e+00     0.0000000000000000e+00     2.3437500000000000e-02     1.5625000000000000e-02                          1     0.0000000000000000e+00     2.0000000000000000e+00     1.0000000000000000e+00     2.1209279907988454e-31    -1.1219909016265616e-05     7.0541919137792177e-05    -7.1869621237484319e-04 
    3.2812500000000000e-01    -5.1562500000000000e-01                          3                         55                          0     1.0000000000000000e+00     0.0000000000000000e+00     0.0000000000000000e+00     0.0000000000000000e+00     2.3437500000000000e-02     1.5625000000000000e-02                          1     0.0000000000000000e+00     2.0000000000000000e+00     1.0000000000000000e+00     2.8647632131622825e-32    -1.0302783372282116e-05     7.1165424829043431e-05    -6.5993369295383529e-04 
    3.4375000000000000e-01    -5.1562500000000000e-01                          3                         56                          0     1.0000000000000000e+00     0.0000000000000000e+00     0.0000000000000000e+00     0.0000000000000000e+00     2.3437500000000000e-02     1.5625000000000000e-02                          1     0.0000000000000000e+00     2.0000000000000000e+00     1.0000000000000000e+00     3.5094573457251888e-33    -9.3786143644205606e-06     7.1643969589460131e-05    -6.0072393772890782e-04 
    3.5937500000000000e-01    -5.1562500000000000e-01                          3                         57                          0     1.0000000000000000e+00     0.0000000000000000e+00     0.0000000000000000e+00     0.0000000000000000e+00     2.3437500000000000e-02     1.5625000000000000e-02                          1     0.0000000000000000e+00     2.0000000000000000e+00     1.0000000000000000e+00     3.8992370196134742e-34    -8.4491173110409082e-06     7.2001480254744438e-05    -5.4117657057809495e-04 