VARIABLES= "AXISX" "AXISY" "PID" "ID" "ID2" "DENSITY" "VELOCITYX" "VELOCITYY" "PRESSURE" "SMOOTHLENGTH" "PTSIZE" "IFLAG" "CI" "EEPSILON" "EKAPPA" "ERHOE" "EPHI" "EEX" "EEY" 
ZONE T="EHDBulkRelax step 60" I= 4489, F=POINT
   -5.1562500000000000e-01    -5.1562500000000000e-01                          3                          1                          0     1.0000000000000000e+00     0.0000000000000000e+00     0.0000000000000000e+00     0.0000000000000000e+00     2.3437500000000000e-02     1.5625000000000000e-02                          1     0.0000000000000000e+00     2.0000000000000000e+00     1.0000000000000000e+00     5.1968470181280521e-46    -8.8087730580877231e-07    -4.2727195032636178e-04    -4.2727195031011224e-04 
   -5.0000000000000000e-01    -5.1562500000000000e-01                          3                          2                          0     1.0000000000000000e+00     0.0000000000000000e+00     0.0000000000000000e+00     0.0000000000000000e+00     2.3437500000000000e-02     1.5625000000000000e-02                          1     0.0000000000000000e+00     2.0000000000000000e+00     1.0000000000000000e+00     1.2419839095515808e-44    -3.3821807573003481e-06    -4.9433089794898651e-04    -6.2535246734280988e-04 
   -4.8437500000000000e-01    -5.1562500000000000e-01                          3                          3                          0     1.0000000000000000e+00     0.0000000000000000e+00     0.0000000000000000e+00     0.0000000000000000e+00     2.3437500000000000e-02     1.5625000000000000e-02                          1     0.0000000000000000e+00     2.0000000000000000e+00     1.0000000000000000e+00     2.6920333508712477e-43    -8.1491107126155002e-06    -5.6555417248725160e-04    -8.3358323486730967e-04 
   -4.6875000000000000e-01    -5.1562500000000000e-01                          3                          4                          0     1.0000000000000000e+00     0.0000000000000000e+00     0.0000000000000000e+00     0.0000000000000000e+00     2.3437500000000000e-02     1.5625000000000000e-02                          1     0.0000000000000000e+00     2.0000000000000000e+00     1.0000000000000000e+00     5.2921644624229060e-42    -1.5902837272060980e-05    -6.1740931824390039e-04    -1.1255345141586973e-03 
   -4.5312500000000000e-01    -5.1562500000000000e-01                          3                          5                          0     1.0000000000000000e+00     0.0000000000000000e+00     0.0000000000000000e+00     0.0000000000000000e+00     2.3437500000000000e-02     1.5625000000000000e-02                          1     0.0000000000000000e+00     2.0000000000000000e+00     1.0000000000000000e+00     9.4357115913759205e-41    -2.3895478774121972e-05    -6.1769453678543285e-04    -1.5408005777582038e-03 
   -4.3750000000000000e-01    -5.1562500000000000e-01                          3                          6                          0     1.0000000000000000e+00     0.0000000000000000e+00     0.0000000000000000e+00     0.0000000000000000e+00     2.3437500000000000e-02     1.5625000000000000e-02                          1     0.0000000000000000e+00     2.0000000000000000e+00     1.0000000000000000e+00     1.5258239003839757e-39    -3.1868075929781316e-05    -6.1598146486798236e-04    -2.0409544876042775e-03 
   -4.2187500000000000e-01    -5.1562500000000000e-01                          3                          7                          0     1.0000000000000000e+00     0.0000000000000000e+00     0.0000000000000000e+00     0.0000000000000000e+00     2.3437500000000000e-02     1.5625000000000000e-02                          1     0.0000000000000000e+00     2.0000000000000000e+00     1.0000000000000000e+00     2.2378068476209015e-38    -3.9832671520089305e-05    -6.1539288445019915e-04    -2.5512080462588892e-03 
   -4.0625000000000000e-01    -5.1562500000000000e-01                          3                          8                          0     1.0000000000000000e+00     0.0000000000000000e+00     0.0000000000000000e+00     0.0000000000000000e+00     2.3437500000000000e-02     1.5625000000000000e-02                          1     0.0000000000000000e+00     2.0000000000000000e+00     1.0000000000000000e+00     2.9766598742131891e-37    -4.7789893326450559e-05    -6.1469414920321255e-04    -3.0608637869518830e-03 
   -3.9062500000000000e-01    -5.1562500000000000e-01                          3                          9                          0     1.0000000000000000e+00     0.0000000000000000e+00     0.0000000000000000e+00     0.0000000000000000e+00     2.3437500000000000e-02     1.5625000000000000e-02                          1     0.0000000000000000e+00     2.0000000000000000e+00     1.0000000000000000e+00     3.5910731972878220e-36    -5.5736531863227237e-05    -6.1366251338141687e-04    -3.5698766523776975e-03 
   -3.7500000000000000e-01    -5.1562500000000000e-01                          3                         10                          0     1.0000000000000000e+00     0.0000000000000000e+00     0.0000000000000000e+00     0.0000000000000000e+00     2.3437500000000000e-02     1.5625000000000000e-02                          1     0.0000000000000000e+00     2.0000000000000000e+00     1.0000000000000000e+00     3.9292325351558395e-35    -6.3667144258324943e-05    -6.1213197706044495e-04    -4.0778882289147526e-03 
   -3.5937500000000000e-01    -5.1562500000000000e-01                          3                         11                          0     1.0000000000000000e+00     0.0000000000000000e+00     0.0000000000000000e+00     0.0000000000000000e+00     2.3437500000000000e-02     1.5625000000000000e-02                          1     0.0000000000000000e+00     2.0000000000000000e+00     1.0000000000000000e+00     3.8992370196134742e-34    -7.1574253208160103e-05    -6.0993970801461990e-04    -4.5844207665710146e-03 
   -3.4375000000000000e-01    -5.1562500000000000e-01                          3                         12                          0     1.0000000000000000e+00     0.0000000000000000e+00     0.0000000000000000e+00     0.0000000000000000e+00     2.3437500000000000e-02     1.5625000000000000e-02                          1     0.0000000000000000e+00     2.0000000000000000e+00     1.0000000000000000e+00     3.5094573457251888e-33    -7.9448218476713286e-05    -6.0691115975372285e-04    -5.0888590594469849e-03 
   -3.2812500000000000e-01    -5.1562500000000000e-01                          3                         13                          0     1.0000000000000000e+00     0.0000000000000000e+00     0.0000000000000000e+00     0.0000000000000000e+00     2.3437500000000000e-02     1.5625000000000000e-02                          1     0.0000000000000000e+00     2.0000000000000000e+00     1.0000000000000000e+00     2.8647632131622825e-32    -8.7277048813757206e-05    -6.0285730674863587e-04    -5.5904373705268464e-03 
   -3.1250000000000000e-01    -5.1562500000000000e-01                          3                         14                          0     1.0000000000000000e+00     0.0000000000000000e+00     0.0000000000000000e+00     0.0000000000000000e+00     2.3437500000000000e-02     1.5625000000000000e-02                          1     0.0000000000000000e+00     2.0000000000000000e+00     1.0000000000000000e+00     2.1209279907988454e-31    -9.5046213406002326e-05    -5.9757545816373626e-04    -6.0882270522945592e-03 
   -2.9687500000000000e-01    -5.1562500000000000e-01                          3                         15                          0     1.0000000000000000e+00     0.0000000000000000e+00     0.0000000000000000e+00     0.0000000000000000e+00     2.3437500000000000e-02     1.5625000000000000e-02                          1     0.0000000000000000e+00     2.0000000000000000e+00     1.0000000000000000e+00     1.4241362655285980e-30    -1.0273847598794062e-04    -5.9085153427737873e-04    -6.5811257435494635e-03 
   -2.8125000000000000e-01    -5.1562500000000000e-01                          3                         16                          0     1.0000000000000000e+00     0.0000000000000000e+00     0.0000000000000000e+00     0.0000000000000000e+00     2.3437500000000000e-02     1.5625000000000000e-02                          1     0.0000000000000000e+00     2.0000000000000000e+00     1.0000000000000000e+00     8.6729251364776345e-30    -1.1033376560264743e-04    -5.8246335915691219e-04    -7.0678489452986439e-03 
   -2.6562500000000000e-01    -5.1562500000000000e-01                          3                         17                          0     1.0000000000000000e+00     0.0000000000000000e+00     0.0000000000000000e+00     0.0000000000000000e+00     2.3437500000000000e-02     1.5625000000000000e-02                          1     0.0000000000000000e+00     2.0000000000000000e+00     1.0000000000000000e+00     4.7903591922831823e-29    -1.1780909597597217e-04    -5.7218486706001016e-04    -7.5469247152215278e-03 
   -2.5000000000000000e-01    -5.1562500000000000e-01                          3                         18                          0     1.0000000000000000e+00     0.0000000000000000e+00     0.0000000000000000e+00     0.0000000000000000e+00     2.3437500000000000e-02     1.5625000000000000e-02                          1     0.0000000000000000e+00     2.0000000000000000e+00     1.0000000000000000e+00     2.3997112642490189e-28    -1.2513854513509614e-04    -5.5979120179246362e-04    -8.0166922264765569e-03 
   -2.3437500000000000e-01    -5.1562500000000000e-01                          3                         19                          0     1.0000000000000000e+00     0.0000000000000000e+00     0.0000000000000000e+00     0.0000000000000000e+00     2.3437500000000000e-02     1.5625000000000000e-02                          1     0.0000000000000000e+00     2.0000000000000000e+00     1.0000000000000000e+00     1.0902807161640972e-27    -1.3229330674152808e-04    -5.4506468205323133e-04    -8.4753049214445226e-03 
   -2.1875000000000000e-01    -5.1562500000000000e-01                          3                         20                          0     1.0000000000000000e+00     0.0000000000000000e+00     0.0000000000000000e+00     0.0000000000000000e+00     2.3437500000000000e-02     1.5625000000000000e-02                          1     0.0000000000000000e+00     2.0000000000000000e+00     1.0000000000000000e+00     4.4926863607036548e-27    -1.3924182409115807e-04    -5.2780156510938805e-04    -8.9207389790195366e-03 
   -2.0312500000000000e-01    -5.1562500000000000e-01                          3                         21                          0     1.0000000000000000e+00     0.0000000000000000e+00     0.0000000000000000e+00     0.0000000000000000e+00     2.3437500000000000e-02     1.5625000000000000e-02                          1     0.0000000000000000e+00     2.0000000000000000e+00     1.0000000000000000e+00     1.6790448655790970e-26    -1.4595001649622094e-04    -5.0781948061476745e-04    -9.3508077209636074e-03 
   -1.8750000000000000e-01    -5.1562500000000000e-01                          3                         22                          0     1.0000000000000000e+00     0.0000000000000000e+00     0.0000000000000000e+00     0.0000000000000000e+00     2.3437500000000000e-02     1.5625000000000000e-02                          1     0.0000000000000000e+00     2.0000000000000000e+00     1.0000000000000000e+00     5.6912403981885556e-26    -1.5238160569413422e-04    -4.8496533476578087e-04    -9.7631824654879750e-03 
   -1.7187500000000000e-01    -5.1562500000000000e-01                          3                         23                          0     1.0000000000000000e+00     0.0000000000000000e+00     0.0000000000000000e+00     0.0000000000000000e+00     2.3437500000000000e-02     1.5625000000000000e-02                          1     0.0000000000000000e+00     2.0000000000000000e+00     1.0000000000000000e+00     1.7496049140698377e-25    -1.5849854684335670e-04    -4.5912340677303401e-04    -1.0155420123911883e-02 
   -1.5625000000000000e-01    -5.1562500000000000e-01                          3                         24                          0     1.0000000000000000e+00     0.0000000000000000e+00     0.0000000000000000e+00     0.0000000000000000e+00     2.3437500000000000e-02     1.5625000000000000e-02                          1     0.0000000000000000e+00     2.0000000000000000e+00     1.0000000000000000e+00     4.8782210812073755e-25    -1.6426156456511760e-04    -4.3022328403521839e-04    -1.0524997593889243e-02 
   -1.4062500000000000e-01    -5.1562500000000000e-01                          3                         25                          0     1.0000000000000000e+00     0.0000000000000000e+00     0.0000000000000000e+00     0.0000000000000000e+00     2.3437500000000000e-02     1.5625000000000000e-02                          1     0.0000000000000000e+00     2.0000000000000000e+00     1.0000000000000000e+00     1.2335915821390160e-24    -1.6963078940678721e-04    -3.9824721618947736e-04    -1.0869352640746257e-02 
   -1.2500000000000000e-01    -5.1562500000000000e-01                          3                         26                          0     1.0000000000000000e+00     0.0000000000000000e+00     0.0000000000000000e+00     0.0000000000000000e+00     2.3437500000000000e-02     1.5625000000000000e-02                          1     0.0000000000000000e+00     2.0000000000000000e+00     1.0000000000000000e+00     2.8292397115623689e-24    -1.7456648432328259e-04    -3.6323642266075927e-04    -1.1185930636209190e-02 
   -1.0937500000000000e-01    -5.1562500000000000e-01                          3                         27                          0     1.0000000000000000e+00     0.0000000000000000e+00     0.0000000000000000e+00     0.0000000000000000e+00     2.3437500000000000e-02     1.5625000000000000e-02                          1     0.0000000000000000e+00     2.0000000000000000e+00     1.0000000000000000e+00     5.8851362652908802e-24    -1.7902984452537166e-04    -3.2529587177011982e-04    -1.1472236053603122e-02 
   -9.3750000000000000e-02    -5.1562500000000000e-01                          3                         28                          0     1.0000000000000000e+00     0.0000000000000000e+00     0.0000000000000000e+00     0.0000000000000000e+00     2.3437500000000000e-02     1.5625000000000000e-02                          1     0.0000000000000000e+00     2.0000000000000000e+00     1.0000000000000000e+00     1.1102779897159669e-23    -1.8298384777400099e-04    -2.8459706937079658e-04    -1.1725887277091666e-02 
   -7.8125000000000000e-02    -5.1562500000000000e-01                          3                         29                          0     1.0000000000000000e+00     0.0000000000000000e+00     0.0000000000000000e+00     0.0000000000000000e+00     2.3437500000000000e-02     1.5625000000000000e-02                          1     0.0000000000000000e+00     2.0000000000000000e+00     1.0000000000000000e+00     1.8997452504702945e-23    -1.8639412653453910e-04    -2.4137846072415774e-04    -1.1944672851559179e-02 
   -6.2500000000000000e-02    -5.1562500000000000e-01                          3                         30                          0     1.0000000000000000e+00     0.0000000000000000e+00     0.0000000000000000e+00     0.0000000000000000e+00     2.3437500000000000e-02     1.5625000000000000e-02                          1     0.0000000000000000e+00     2.0000000000000000e+00     1.0000000000000000e+00     2.9481354571926571e-23    -1.8922982876931502e-04    -1.9594315661066570e-04    -1.2126607053588822e-02 
   -4.6875000000000000e-02    -5.1562500000000000e-01                          3                         31                          0     1.0000000000000000e+00     0.0000000000000000e+00     0.0000000000000000e+00     0.0000000000000000e+00     2.3437500000000000e-02     1.5625000000000000e-02                          1     0.0000000000000000e+00     2.0000000000000000e+00     1.0000000000000000e+00     4.1494251063323423e-23    -1.9146443129850919e-04    -1.4865384520714733e-04    -1.2269982417311131e-02 
   -3.1250000000000000e-02    -5.1562500000000000e-01                          3                         32                          0     1.0000000000000000e+00     0.0000000000000000e+00     0.0000000000000000e+00     0.0000000000000000e+00     2.3437500000000000e-02     1.5625000000000000e-02                          1     0.0000000000000000e+00     2.0000000000000000e+00     1.0000000000000000e+00     5.2968400209910809e-23    -1.9307646893094966e-04    -9.9924930943545113e-05    -1.2373416857132898e-02 
   -1.5625000000000000e-02    -5.1562500000000000e-01                          3                         33                          0     1.0000000000000000e+00     0.0000000000000000e+00     0.0000000000000000e+00     0.0000000000000000e+00     2.3437500000000000e-02     1.5625000000000000e-02                          1     0.0000000000000000e+00     2.0000000000000000e+00     1.0000000000000000e+00     6.1324527657408224e-23    -1.9405014433806090e-04    -5.0212137408742424e-05    -1.2435893093784687e-02 
    0.0000000000000000e+00    -5.1562500000000000e-01                          3                         34                          0     1.0000000000000000e+00     0.0000000000000000e+00     0.0000000000000000e+00     0.0000000000000000e+00     2.3437500000000000e-02     1.5625000000000000e-02                          1     0.0000000000000000e+00     2.0000000000000000e+00     1.0000000000000000e+00     6.4393198403393371e-23    -1.9437578801647867e-04    -3.8554281500904979e-12    -1.2456788398023867e-02 
    1.5625000000000000e-02    -5.1562500000000000e-01                          3                         35                          0     1.0000000000000000e+00     0.0000000000000000e+00     0.0000000000000000e+00     0.0000000000000000e+00     2.3437500000000000e-02     1.5625000000000000e-02                          1     0.0000000000000000e+00     2.0000000000000000e+00     1.0000000000000000e+00     6.1324527657408224e-23    -1.9405014442578047e-04     5.0212130616320412e-05    -1.2435893099305003e-02 
    3.1250000000000000e-02    -5.1562500000000000e-01                          3                         36                          0     1.0000000000000000e+00     0.0000000000000000e+00     0.0000000000000000e+00     0.0000000000000000e+00     2.3437500000000000e-02     1.5625000000000000e-02                          1     0.0000000000000000e+00     2.0000000000000000e+00     1.0000000000000000e+00     5.2968400209910809e-23    -1.9307646910647652e-04     9.9924924241606304e-05    -1.2373416868174720e-02 
    4.6875000000000000e-02    -5.1562500000000000e-01                          3                         37                          0     1.0000000000000000e+00     0.0000000000000000e+00     0.0000000000000000e+00     0.0000000000000000e+00     2.3437500000000000e-02     1.5625000000000000e-02                          1     0.0000000000000000e+00     2.0000000000000000e+00     1.0000000000000000e+00     4.1494251063323423e-23    -1.9146443156029726e-04     1.4865383867232134e-04    -1.2269982433936693e-02 
    6.2500000000000000e-02    -5.1562500000000000e-01                          3                         38                          0     1.0000000000000000e+00     0.0000000000000000e+00     0.0000000000000000e+00     0.0000000000000000e+00     2.3437500000000000e-02     1.5625000000000000e-02                          1     0.0000000000000000e+00     2.0000000000000000e+00     1.0000000000000000e+00     2.9481354571926571e-23    -1.8922982911427044e-04     1.9594315031297590e-04    -1.2126607075802156e-02 
    7.8125000000000000e-02    -5.1562500000000000e-01                          3                         39                          0     1.0000000000000000e+00     0.0000000000000000e+00     0.0000000000000000e+00     0.0000000000000000e+00     2.3437500000000000e-02     1.5625000000000000e-02                          1     0.0000000000000000e+00     2.0000000000000000e+00     1.0000000000000000e+00     1.8997452504702945e-23    -1.8639412695841139e-04     2.4137845471601315e-04    -1.1944672879235535e-02 
    9.3750000000000000e-02    -5.1562500000000000e-01                          3                         40                          0     1.0000000000000000e+00     0.0000000000000000e+00     0.0000000000000000e+00     0.0000000000000000e+00     2.3437500000000000e-02     1.5625000000000000e-02                          1     0.0000000000000000e+00     2.0000000000000000e+00     1.0000000000000000e+00     1.1102779897159669e-23    -1.8298384827313059e-04     2.8459706369929675e-04    -1.1725887309164143e-02 
    1.0937500000000000e-01    -5.1562500000000000e-01                          3                         41                          0     1.0000000000000000e+00     0.0000000000000000e+00     0.0000000000000000e+00     0.0000000000000000e+00     2.3437500000000000e-02     1.5625000000000000e-02                          1     0.0000000000000000e+00     2.0000000000000000e+00     1.0000000000000000e+00     5.8851362652908802e-24    -1.7902984509552395e-04     3.2529586647817032e-04    -1.1472236090432781e-02 
    1.2500000000000000e-01    -5.1562500000000000e-01                          3                         42                          0     1.0000000000000000e+00     0.0000000000000000e+00     0.0000000000000000e+00     0.0000000000000000e+00     2.3437500000000000e-02     1.5625000000000000e-02                          1     0.0000000000000000e+00     2.0000000000000000e+00     1.0000000000000000e+00     2.8292397115623689e-24    -1.7456648496054511e-04     3.6323641785460206e-04    -1.1185930676632896e-02 
    1.4062500000000000e-01    -5.1562500000000000e-01                          3                         43                          0     1.0000000000000000e+00     0.0000000000000000e+00     0.0000000000000000e+00     0.0000000000000000e+00     2.3437500000000000e-02     1.5625000000000000e-02                          1     0.0000000000000000e+00     2.0000000000000000e+00     1.0000000000000000e+00     1.2335915821390160e-24    -1.6963079010333794e-04     3.9824721188452480e-04    -1.0869352685641348e-02 
    1.5625000000000000e-01    -5.1562500000000000e-01                          3                         44                          0     1.0000000000000000e+00     0.0000000000000000e+00     0.0000000000000000e+00     0.0000000000000000e+00     2.3437500000000000e-02     1.5625000000000000e-02                          1     0.0000000000000000e+00     2.0000000000000000e+00     1.0000000000000000e+00     4.8782210812073755e-25    -1.6426156531140605e-04     4.3022328030786034e-04    -1.0524997641799318e-02 
    1.7187500000000000e-01    -5.1562500000000000e-01                          3                         45                          0     1.0000000000000000e+00     0.0000000000000000e+00     0.0000000000000000e+00     0.0000000000000000e+00     2.3437500000000000e-02     1.5625000000000000e-02                          1     0.0000000000000000e+00     2.0000000000000000e+00     1.0000000000000000e+00     1.7496049140698377e-25    -1.5849854763260636e-04     4.5912340357996402e-04    -1.0155420174963969e-02 
    1.8750000000000000e-01    -5.1562500000000000e-01                          3                         46                          0     1.0000000000000000e+00     0.0000000000000000e+00     0.0000000000000000e+00     0.0000000000000000e+00     2.3437500000000000e-02     1.5625000000000000e-02                          1     0.0000000000000000e+00     2.0000000000000000e+00     1.0000000000000000e+00     5.6912403981885556e-26    -1.5238160652255721e-04     4.8496533211590153e-04    -9.7631825184426244e-03 
    2.0312500000000000e-01    -5.1562500000000000e-01                          3                         47                          0     1.0000000000000000e+00     0.0000000000000000e+00     0.0000000000000000e+00     0.0000000000000000e+00     2.3437500000000000e-02     1.5625000000000000e-02                          1     0.0000000000000000e+00     2.0000000000000000e+00     1.0000000000000000e+00     1.6790448655790970e-26    -1.4595001735899377e-04     5.0781947861293928e-04    -9.3508077767490635e-03 
    2.1875000000000000e-01    -5.1562500000000000e-01                          3                         48                          0     1.0000000000000000e+00     0.0000000000000000e+00     0.0000000000000000e+00     0.0000000000000000e+00     2.3437500000000000e-02     1.5625000000000000e-02                          1     0.0000000000000000e+00     2.0000000000000000e+00     1.0000000000000000e+00     4.4926863607036548e-27    -1.3924182497625858e-04     5.2780156382766506e-04    -8.9207390358554128e-03 
    2.3437500000000000e-01    -5.1562500000000000e-01                          3                         49                          0     1.0000000000000000e+00     0.0000000000000000e+00     0.0000000000000000e+00     0.0000000000000000e+00     2.3437500000000000e-02     1.5625000000000000e-02                          1     0.0000000000000000e+00     2.0000000000000000e+00     1.0000000000000000e+00     1.0902807161640972e-27    -1.3229330763308523e-04     5.4506468149497585e-04    -8.4753049790176321e-03 
    2.5000000000000000e-01    -5.1562500000000000e-01                          3                         50                          0     1.0000000000000000e+00     0.0000000000000000e+00     0.0000000000000000e+00     0.0000000000000000e+00     2.3437500000000000e-02     1.5625000000000000e-02                          1     0.0000000000000000e+00     2.0000000000000000e+00     1.0000000000000000e+00     2.3997112642490189e-28    -1.2513854602470387e-04     5.5979120185130598e-04    -8.0166922842296040e-03 
    2.6562500000000000e-01    -5.1562500000000000e-01                          3                         51                          0     1.0000000000000000e+00     0.0000000000000000e+00     0.0000000000000000e+00     0.0000000000000000e+00     2.3437500000000000e-02     1.5625000000000000e-02                          1     0.0000000000000000e+00     2.0000000000000000e+00     1.0000000000000000e+00     4.7903591922831823e-29    -1.1780909686551983e-04     5.7218486768504187e-04    -7.5469247725926140e-03 
    2.8125000000000000e-01    -5.1562500000000000e-01                          3                         52                          0     1.0000000000000000e+00     0.0000000000000000e+00     0.0000000000000000e+00     0.0000000000000000e+00     2.3437500000000000e-02     1.5625000000000000e-02                          1     0.0000000000000000e+00     2.0000000000000000e+00     1.0000000000000000e+00     8.6729251364776345e-30    -1.1033376648828414e-04     5.8246336042207399e-04    -7.0678490016908265e-03 
    2.9687500000000000e-01    -5.1562500000000000e-01                          3                         53                          0     1.0000000000000000e+00     0.0000000000000000e+00     0.0000000000000000e+00     0.0000000000000000e+00     2.3437500000000000e-02     1.5625000000000000e-02                          1     0.0000000000000000e+00     2.0000000000000000e+00     1.0000000000000000e+00     1.4241362655285980e-30    -1.0273847685303517e-04     5.9085153631000572e-04    -6.5811257987821361e-03 
    3.1250000000000000e-01    -5.1562500000000000e-01                          3                         54                          0     1.0000000000000000e+00     0.0000000000000000e+00     0.0000000000000000e+00     0.0000000000000000e+00     2.3437500000000000e-02     1.5625000000000000e-02                          1     0.0000000000000000e+00     2.0000000000000000e+00     1.0000000000000000e+00     2.1209279907988454e-31    -9.5046214228589510e-05     5.9757546095372141e-04    -6.0882271057790243e-03 
    3.2812500000000000e-01    -5.1562500000000000e-01                          3                         55                          0     1.0000000000000000e+00     0.0000000000000000e+00     0.0000000000000000e+00     0.0000000000000000e+00     2.3437500000000000e-02     1.5625000000000000e-02                          1     0.0000000000000000e+00     2.0000000000000000e+00     1.0000000000000000e+00     2.8647632131622825e-32    -8.7277049588005927e-05     6.0285731008107588e-04    -5.5904374212966366e-03 
    3.4375000000000000e-01    -5.1562500000000000e-01                          3                         56                          0     1.0000000000000000e+00     0.0000000000000000e+00     0.0000000000000000e+00     0.0000000000000000e+00     2.3437500000000000e-02     1.5625000000000000e-02                          1     0.0000000000000000e+00     2.0000000000000000e+00     1.0000000000000000e+00     3.5094573457251888e-33    -7.9448219213741928e-05     6.0691116338650064e-04    -5.0888591071793403e-03 
    3.5937500000000000e-01    -5.1562500000000000e-01                          3                         57                          0     1.0000000000000000e+00     0.0000000000000000e+00     0.0000000000000000e+00     0.0000000000000000e+00     2.3437500000000000e-02     1.5625000000000000e-02                          1     0.0000000000000000e+00     2.0000000000000000e+00     1.0000000000000000e+00     3.8992370196134742e-34    -7.1574253913349171e-05     6.0993971211232580e-04    -4.5844208109672773e-03 