VARIABLES= "AXISX" "AXISY" "PID" "ID" "ID2" "DENSITY" "VELOCITYX" "VELOCITYY" "PRESSURE" "SMOOTHLENGTH" "PTSIZE" "IFLAG" "CI" "EEPSILON" "EKAPPA" "ERHOE" "EPHI" "EEX" "EEY" 
ZONE T="EHDBulkRelax step 320" I= 4489, F=POINT
   -5.1562500000000000e-01    -5.1562500000000000e-01                          3                          1                          0     1.0000000000000000e+00     0.0000000000000000e+00     0.0000000000000000e+00     0.0000000000000000e+00     2.3437500000000000e-02     1.5625000000000000e-02                          1     0.0000000000000000e+00     2.0000000000000000e+00     1.0000000000000000e+00     5.1968470181280521e-46    -3.4850352452262586e-08    -1.6904258935074079e-05    -1.6904258941494890e-05 
   -5.0000000000000000e-01    -5.1562500000000000e-01                          3                          2                          0     1.0000000000000000e+00     0.0000000000000000e+00     0.0000000000000000e+00     0.0000000000000000e+00     2.3437500000000000e-02     1.5625000000000000e-02                          1     0.0000000000000000e+00     2.0000000000000000e+00     1.0000000000000000e+00     1.2419839095515808e-44    -1.3380999903690803e-07    -1.9557327573121951e-05    -2.4740964221221039e-05 
   -4.8437500000000000e-01    -5.1562500000000000e-01                          3                          3                          0     1.0000000000000000e+00     0.0000000000000000e+00     0.0000000000000000e+00     0.0000000000000000e+00     2.3437500000000000e-02     1.5625000000000000e-02                          1     0.0000000000000000e+00     2.0000000000000000e+00     1.0000000000000000e+00     2.6920333508712477e-43    -3.2240515056513770e-07    -2.2375150437266863e-05    -3.2979246201471642e-05 
   -4.6875000000000000e-01    -5.1562500000000000e-01                          3                          4                          0     1.0000000000000000e+00     0.0000000000000000e+00     0.0000000000000000e+00     0.0000000000000000e+00     2.3437500000000000e-02     1.5625000000000000e-02                          1     0.0000000000000000e+00     2.0000000000000000e+00     1.0000000000000000e+00     5.2921644624229060e-42    -6.2916762620374703e-07    -2.4426707537958167e-05    -4.4529782136967565e-05 
   -4.5312500000000000e-01    -5.1562500000000000e-01                          3                          5                          0     1.0000000000000000e+00     0.0000000000000000e+00     0.0000000000000000e+00     0.0000000000000000e+00     2.3437500000000000e-02     1.5625000000000000e-02                          1     0.0000000000000000e+00     2.0000000000000000e+00     1.0000000000000000e+00     9.4357115913759205e-41    -9.4538234870376517e-07    -2.4437991671978197e-05    -6.0959049362187037e-05 
   -4.3750000000000000e-01    -5.1562500000000000e-01                          3                          6                          0     1.0000000000000000e+00     0.0000000000000000e+00     0.0000000000000000e+00     0.0000000000000000e+00     2.3437500000000000e-02     1.5625000000000000e-02                          1     0.0000000000000000e+00     2.0000000000000000e+00     1.0000000000000000e+00     1.5258239003839757e-39    -1.2608040520717066e-06    -2.4370216954896948e-05    -8.0746754021721826e-05 
   -4.2187500000000000e-01    -5.1562500000000000e-01                          3                          7                          0     1.0000000000000000e+00     0.0000000000000000e+00     0.0000000000000000e+00     0.0000000000000000e+00     2.3437500000000000e-02     1.5625000000000000e-02                          1     0.0000000000000000e+00     2.0000000000000000e+00     1.0000000000000000e+00     2.2378068476209015e-38    -1.5759091869876854e-06    -2.4346930729624221e-05    -1.0093403336800123e-04 
   -4.0625000000000000e-01    -5.1562500000000000e-01                          3                          8                          0     1.0000000000000000e+00     0.0000000000000000e+00     0.0000000000000000e+00     0.0000000000000000e+00     2.3437500000000000e-02     1.5625000000000000e-02                          1     0.0000000000000000e+00     2.0000000000000000e+00     1.0000000000000000e+00     2.9766598742131891e-37    -1.8907225892040528e-06    -2.4319286397948928e-05    -1.2109766102429450e-04 
   -3.9062500000000000e-01    -5.1562500000000000e-01                          3                          9                          0     1.0000000000000000e+00     0.0000000000000000e+00     0.0000000000000000e+00     0.0000000000000000e+00     2.3437500000000000e-02     1.5625000000000000e-02                          1     0.0000000000000000e+00     2.0000000000000000e+00     1.0000000000000000e+00     3.5910731972878220e-36    -2.2051172809538060e-06    -2.4278471434927060e-05    -1.4123585437833243e-04 
   -3.7500000000000000e-01    -5.1562500000000000e-01                          3                         10                          0     1.0000000000000000e+00     0.0000000000000000e+00     0.0000000000000000e+00     0.0000000000000000e+00     2.3437500000000000e-02     1.5625000000000000e-02                          1     0.0000000000000000e+00     2.0000000000000000e+00     1.0000000000000000e+00     3.9292325351558395e-35    -2.5188779258396172e-06    -2.4217918350165711e-05    -1.6133443339797727e-04 
   -3.5937500000000000e-01    -5.1562500000000000e-01                          3                         11                          0     1.0000000000000000e+00     0.0000000000000000e+00     0.0000000000000000e+00     0.0000000000000000e+00     2.3437500000000000e-02     1.5625000000000000e-02                          1     0.0000000000000000e+00     2.0000000000000000e+00     1.0000000000000000e+00     3.8992370196134742e-34    -2.8317086978349632e-06    -2.4131184969619326e-05    -1.8137449674513956e-04 
   -3.4375000000000000e-01    -5.1562500000000000e-01                          3                         12                          0     1.0000000000000000e+00     0.0000000000000000e+00     0.0000000000000000e+00     0.0000000000000000e+00     2.3437500000000000e-02     1.5625000000000000e-02                          1     0.0000000000000000e+00     2.0000000000000000e+00     1.0000000000000000e+00     3.5094573457251888e-33    -3.1432281965027954e-06    -2.4011365657475020e-05    -2.0133170488342251e-04 
   -3.2812500000000000e-01    -5.1562500000000000e-01                          3                         13                          0     1.0000000000000000e+00     0.0000000000000000e+00     0.0000000000000000e+00     0.0000000000000000e+00     2.3437500000000000e-02     1.5625000000000000e-02                          1     0.0000000000000000e+00     2.0000000000000000e+00     1.0000000000000000e+00     2.8647632131622825e-32    -3.4529620082814064e-06    -2.3850981968874307e-05    -2.2117576278446013e-04 
   -3.1250000000000000e-01    -5.1562500000000000e-01                          3                         14                          0     1.0000000000000000e+00     0.0000000000000000e+00     0.0000000000000000e+00     0.0000000000000000e+00     2.3437500000000000e-02     1.5625000000000000e-02                          1     0.0000000000000000e+00     2.0000000000000000e+00     1.0000000000000000e+00     2.1209279907988454e-31    -3.7603352482923282e-06    -2.3642014811054677e-05    -2.4086993011378038e-04 
   -2.9687500000000000e-01    -5.1562500000000000e-01                          3                         15                          0     1.0000000000000000e+00     0.0000000000000000e+00     0.0000000000000000e+00     0.0000000000000000e+00     2.3437500000000000e-02     1.5625000000000000e-02                          1     0.0000000000000000e+00     2.0000000000000000e+00     1.0000000000000000e+00     1.4241362655285980e-30    -4.0646659951301811e-06    -2.3375994498464010e-05    -2.6037059394297147e-04 
   -2.8125000000000000e-01    -5.1562500000000000e-01                          3                         16                          0     1.0000000000000000e+00     0.0000000000000000e+00     0.0000000000000000e+00     0.0000000000000000e+00     2.3437500000000000e-02     1.5625000000000000e-02                          1     0.0000000000000000e+00     2.0000000000000000e+00     1.0000000000000000e+00     8.6729251364776345e-30    -4.3651601761749230e-06    -2.3044131025303646e-05    -2.7962693528273363e-04 
   -2.6562500000000000e-01    -5.1562500000000000e-01                          3                         17                          0     1.0000000000000000e+00     0.0000000000000000e+00     0.0000000000000000e+00     0.0000000000000000e+00     2.3437500000000000e-02     1.5625000000000000e-02                          1     0.0000000000000000e+00     2.0000000000000000e+00     1.0000000000000000e+00     4.7903591922831823e-29    -4.6609083791099683e-06    -2.2637480502627440e-05    -2.9858071941643290e-04 
   -2.5000000000000000e-01    -5.1562500000000000e-01                          3                         18                          0     1.0000000000000000e+00     0.0000000000000000e+00     0.0000000000000000e+00     0.0000000000000000e+00     2.3437500000000000e-02     1.5625000000000000e-02                          1     0.0000000000000000e+00     2.0000000000000000e+00     1.0000000000000000e+00     2.3997112642490189e-28    -4.9508850474804049e-06    -2.2147146907847944e-05    -3.1716623859844500e-04 
   -2.3437500000000000e-01    -5.1562500000000000e-01                          3                         19                          0     1.0000000000000000e+00     0.0000000000000000e+00     0.0000000000000000e+00     0.0000000000000000e+00     2.3437500000000000e-02     1.5625000000000000e-02                          1     0.0000000000000000e+00     2.0000000000000000e+00     1.0000000000000000e+00     1.0902807161640972e-27    -5.2339505106715223e-06    -2.1564518070106433e-05    -3.3531043711647736e-04 
   -2.1875000000000000e-01    -5.1562500000000000e-01                          3                         20                          0     1.0000000000000000e+00     0.0000000000000000e+00     0.0000000000000000e+00     0.0000000000000000e+00     2.3437500000000000e-02     1.5625000000000000e-02                          1     0.0000000000000000e+00     2.0000000000000000e+00     1.0000000000000000e+00     4.4926863607036548e-27    -5.5088562834863102e-06    -2.0881533259776504e-05    -3.5293324601372983e-04 
   -2.0312500000000000e-01    -5.1562500000000000e-01                          3                         21                          0     1.0000000000000000e+00     0.0000000000000000e+00     0.0000000000000000e+00     0.0000000000000000e+00     2.3437500000000000e-02     1.5625000000000000e-02                          1     0.0000000000000000e+00     2.0000000000000000e+00     1.0000000000000000e+00     1.6790448655790970e-26    -5.7742540228924451e-06    -2.0090977314762544e-05    -3.6994815329101989e-04 
   -1.8750000000000000e-01    -5.1562500000000000e-01                          3                         22                          0     1.0000000000000000e+00     0.0000000000000000e+00     0.0000000000000000e+00     0.0000000000000000e+00     2.3437500000000000e-02     1.5625000000000000e-02                          1     0.0000000000000000e+00     2.0000000000000000e+00     1.0000000000000000e+00     5.6912403981885556e-26    -6.0287084435687299e-06    -1.9186793361547040e-05    -3.8626302877760690e-04 
   -1.7187500000000000e-01    -5.1562500000000000e-01                          3                         23                          0     1.0000000000000000e+00     0.0000000000000000e+00     0.0000000000000000e+00     0.0000000000000000e+00     2.3437500000000000e-02     1.5625000000000000e-02                          1     0.0000000000000000e+00     2.0000000000000000e+00     1.0000000000000000e+00     1.7496049140698377e-25    -6.2707143699055620e-06    -1.8164403123215738e-05    -4.0178121601705909e-04 
   -1.5625000000000000e-01    -5.1562500000000000e-01                          3                         24                          0     1.0000000000000000e+00     0.0000000000000000e+00     0.0000000000000000e+00     0.0000000000000000e+00     2.3437500000000000e-02     1.5625000000000000e-02                          1     0.0000000000000000e+00     2.0000000000000000e+00     1.0000000000000000e+00     4.8782210812073755e-25    -6.4987179417775550e-06    -1.7021020846448464e-05    -4.1640289289732570e-04 
   -1.4062500000000000e-01    -5.1562500000000000e-01                          3                         25                          0     1.0000000000000000e+00     0.0000000000000000e+00     0.0000000000000000e+00     0.0000000000000000e+00     2.3437500000000000e-02     1.5625000000000000e-02                          1     0.0000000000000000e+00     2.0000000000000000e+00     1.0000000000000000e+00     1.2335915821390160e-24    -6.7111417946492471e-06    -1.5755944259976099e-05    -4.3002668922785672e-04 
   -1.2500000000000000e-01    -5.1562500000000000e-01                          3                         26                          0     1.0000000000000000e+00     0.0000000000000000e+00     0.0000000000000000e+00     0.0000000000000000e+00     2.3437500000000000e-02     1.5625000000000000e-02                          1     0.0000000000000000e+00     2.0000000000000000e+00     1.0000000000000000e+00     2.8292397115623689e-24    -6.9064138023165205e-06    -1.4370804139370861e-05    -4.4255153561187274e-04 
   -1.0937500000000000e-01    -5.1562500000000000e-01                          3                         27                          0     1.0000000000000000e+00     0.0000000000000000e+00     0.0000000000000000e+00     0.0000000000000000e+00     2.3437500000000000e-02     1.5625000000000000e-02                          1     0.0000000000000000e+00     2.0000000000000000e+00     1.0000000000000000e+00     5.8851362652908802e-24    -7.0829987222437126e-06    -1.2869753377512449e-05    -4.5387870104088095e-04 
   -9.3750000000000000e-02    -5.1562500000000000e-01                          3                         28                          0     1.0000000000000000e+00     0.0000000000000000e+00     0.0000000000000000e+00     0.0000000000000000e+00     2.3437500000000000e-02     1.5625000000000000e-02                          1     0.0000000000000000e+00     2.0000000000000000e+00     1.0000000000000000e+00     1.1102779897159669e-23    -7.2394318359428248e-06    -1.1259577306501179e-05    -4.6391396105187289e-04 
   -7.8125000000000000e-02    -5.1562500000000000e-01                          3                         29                          0     1.0000000000000000e+00     0.0000000000000000e+00     0.0000000000000000e+00     0.0000000000000000e+00     2.3437500000000000e-02     1.5625000000000000e-02                          1     0.0000000000000000e+00     2.0000000000000000e+00     1.0000000000000000e+00     1.8997452504702945e-23    -7.3743534532326847e-06    -9.5497095869280966e-06    -4.7256982342484062e-04 
   -6.2500000000000000e-02    -5.1562500000000000e-01                          3                         30                          0     1.0000000000000000e+00     0.0000000000000000e+00     0.0000000000000000e+00     0.0000000000000000e+00     2.3437500000000000e-02     1.5625000000000000e-02                          1     0.0000000000000000e+00     2.0000000000000000e+00     1.0000000000000000e+00     2.9481354571926571e-23    -7.4865429679606937e-06    -7.7521422539321307e-06    -4.7976772646879005e-04 
   -4.6875000000000000e-02    -5.1562500000000000e-01                          3                         31                          0     1.0000000000000000e+00     0.0000000000000000e+00     0.0000000000000000e+00     0.0000000000000000e+00     2.3437500000000000e-02     1.5625000000000000e-02                          1     0.0000000000000000e+00     2.0000000000000000e+00     1.0000000000000000e+00     4.1494251063323423e-23    -7.5749510374012044e-06    -5.8812244226069503e-06    -4.8544011737738712e-04 
   -3.1250000000000000e-02    -5.1562500000000000e-01                          3                         32                          0     1.0000000000000000e+00     0.0000000000000000e+00     0.0000000000000000e+00     0.0000000000000000e+00     2.3437500000000000e-02     1.5625000000000000e-02                          1     0.0000000000000000e+00     2.0000000000000000e+00     1.0000000000000000e+00     5.2968400209910809e-23    -7.6387284295738741e-06    -3.9533512730414901e-06    -4.8953231644258089e-04 
   -1.5625000000000000e-02    -5.1562500000000000e-01                          3                         33                          0     1.0000000000000000e+00     0.0000000000000000e+00     0.0000000000000000e+00     0.0000000000000000e+00     2.3437500000000000e-02     1.5625000000000000e-02                          1     0.0000000000000000e+00     2.0000000000000000e+00     1.0000000000000000e+00     6.1324527657408224e-23    -7.6772501515650128e-06    -1.9865527028431238e-06    -4.9200407674295280e-04 
    0.0000000000000000e+00    -5.1562500000000000e-01                          3                         34                          0     1.0000000000000000e+00     0.0000000000000000e+00     0.0000000000000000e+00     0.0000000000000000e+00     2.3437500000000000e-02     1.5625000000000000e-02                          1     0.0000000000000000e+00     2.0000000000000000e+00     1.0000000000000000e+00     6.4393198403393371e-23    -7.6901336470023895e-06     1.3710624739481700e-12    -4.9283076116362007e-04 
    1.5625000000000000e-02    -5.1562500000000000e-01                          3                         35                          0     1.0000000000000000e+00     0.0000000000000000e+00     0.0000000000000000e+00     0.0000000000000000e+00     2.3437500000000000e-02     1.5625000000000000e-02                          1     0.0000000000000000e+00     2.0000000000000000e+00     1.0000000000000000e+00     6.1324527657408224e-23    -7.6772501162139724e-06     1.9865554335110977e-06    -4.9200407447107881e-04 
    3.1250000000000000e-02    -5.1562500000000000e-01                          3                         36                          0     1.0000000000000000e+00     0.0000000000000000e+00     0.0000000000000000e+00     0.0000000000000000e+00     2.3437500000000000e-02     1.5625000000000000e-02                          1     0.0000000000000000e+00     2.0000000000000000e+00     1.0000000000000000e+00     5.2968400209910809e-23    -7.6387283589554938e-06     3.9533539662496174e-06    -4.8953231191374612e-04 
    4.6875000000000000e-02    -5.1562500000000000e-01                          3                         37                          0     1.0000000000000000e+00     0.0000000000000000e+00     0.0000000000000000e+00     0.0000000000000000e+00     2.3437500000000000e-02     1.5625000000000000e-02                          1     0.0000000000000000e+00     2.0000000000000000e+00     1.0000000000000000e+00     4.1494251063323423e-23    -7.5749509320706550e-06     5.8812270487081132e-06    -4.8544011067601053e-04 
    6.2500000000000000e-02    -5.1562500000000000e-01                          3                         38                          0     1.0000000000000000e+00     0.0000000000000000e+00     0.0000000000000000e+00     0.0000000000000000e+00     2.3437500000000000e-02     1.5625000000000000e-02                          1     0.0000000000000000e+00     2.0000000000000000e+00     1.0000000000000000e+00     2.9481354571926571e-23    -7.4865428291884704e-06     7.7521447847396712e-06    -4.7976771761395001e-04 
    7.8125000000000000e-02    -5.1562500000000000e-01                          3                         39                          0     1.0000000000000000e+00     0.0000000000000000e+00     0.0000000000000000e+00     0.0000000000000000e+00     2.3437500000000000e-02     1.5625000000000000e-02                          1     0.0000000000000000e+00     2.0000000000000000e+00     1.0000000000000000e+00     1.8997452504702945e-23    -7.3743532827641921e-06     9.5497120006400356e-06    -4.7256981251595561e-04 
    9.3750000000000000e-02    -5.1562500000000000e-01                          3                         40                          0     1.0000000000000000e+00     0.0000000000000000e+00     0.0000000000000000e+00     0.0000000000000000e+00     2.3437500000000000e-02     1.5625000000000000e-02                          1     0.0000000000000000e+00     2.0000000000000000e+00     1.0000000000000000e+00     1.1102779897159669e-23    -7.2394316352429208e-06     1.1259579586436490e-05    -4.6391394818810186e-04 
    1.0937500000000000e-01    -5.1562500000000000e-01                          3                         41                          0     1.0000000000000000e+00     0.0000000000000000e+00     0.0000000000000000e+00     0.0000000000000000e+00     2.3437500000000000e-02     1.5625000000000000e-02                          1     0.0000000000000000e+00     2.0000000000000000e+00     1.0000000000000000e+00     5.8851362652908802e-24    -7.0829984926752943e-06     1.2869755502022498e-05    -4.5387868635219850e-04 
    1.2500000000000000e-01    -5.1562500000000000e-01                          3                         42                          0     1.0000000000000000e+00     0.0000000000000000e+00     0.0000000000000000e+00     0.0000000000000000e+00     2.3437500000000000e-02     1.5625000000000000e-02                          1     0.0000000000000000e+00     2.0000000000000000e+00     1.0000000000000000e+00     2.8292397115623689e-24    -6.9064135458314755e-06     1.4370806079235266e-05    -4.4255151923396568e-04 
    1.4062500000000000e-01    -5.1562500000000000e-01                          3                         43                          0     1.0000000000000000e+00     0.0000000000000000e+00     0.0000000000000000e+00     0.0000000000000000e+00     2.3437500000000000e-02     1.5625000000000000e-02                          1     0.0000000000000000e+00     2.0000000000000000e+00     1.0000000000000000e+00     1.2335915821390160e-24    -6.7111415143474737e-06     1.5755945988552301e-05    -4.3002667131740641e-04 
    1.5625000000000000e-01    -5.1562500000000000e-01                          3                         44                          0     1.0000000000000000e+00     0.0000000000000000e+00     0.0000000000000000e+00     0.0000000000000000e+00     2.3437500000000000e-02     1.5625000000000000e-02                          1     0.0000000000000000e+00     2.0000000000000000e+00     1.0000000000000000e+00     4.8782210812073755e-25    -6.4987176413083811e-06     1.7021022353198968e-05    -4.1640287363571018e-04 
    1.7187500000000000e-01    -5.1562500000000000e-01                          3                         45                          0     1.0000000000000000e+00     0.0000000000000000e+00     0.0000000000000000e+00     0.0000000000000000e+00     2.3437500000000000e-02     1.5625000000000000e-02                          1     0.0000000000000000e+00     2.0000000000000000e+00     1.0000000000000000e+00     1.7496049140698377e-25    -6.2707140519740305e-06     1.8164404409020863e-05    -4.0178119561986366e-04 
    1.8750000000000000e-01    -5.1562500000000000e-01                          3                         46                          0     1.0000000000000000e+00     0.0000000000000000e+00     0.0000000000000000e+00     0.0000000000000000e+00     2.3437500000000000e-02     1.5625000000000000e-02                          1     0.0000000000000000e+00     2.0000000000000000e+00     1.0000000000000000e+00     5.6912403981885556e-26    -6.0287081098341047e-06     1.9186794417420043e-05    -3.8626300741054209e-04 
    2.0312500000000000e-01    -5.1562500000000000e-01                          3                         47                          0     1.0000000000000000e+00     0.0000000000000000e+00     0.0000000000000000e+00     0.0000000000000000e+00     2.3437500000000000e-02     1.5625000000000000e-02                          1     0.0000000000000000e+00     2.0000000000000000e+00     1.0000000000000000e+00     1.6790448655790970e-26    -5.7742536757400761e-06     2.0090978115480706e-05    -3.6994813116539169e-04 
    2.1875000000000000e-01    -5.1562500000000000e-01                          3                         48                          0     1.0000000000000000e+00     0.0000000000000000e+00     0.0000000000000000e+00     0.0000000000000000e+00     2.3437500000000000e-02     1.5625000000000000e-02                          1     0.0000000000000000e+00     2.0000000000000000e+00     1.0000000000000000e+00     4.4926863607036548e-27    -5.5088559277267337e-06     2.0881533777529462e-05    -3.5293322333389916e-04 
    2.3437500000000000e-01    -5.1562500000000000e-01                          3                         49                          0     1.0000000000000000e+00     0.0000000000000000e+00     0.0000000000000000e+00     0.0000000000000000e+00     2.3437500000000000e-02     1.5625000000000000e-02                          1     0.0000000000000000e+00     2.0000000000000000e+00     1.0000000000000000e+00     1.0902807161640972e-27    -5.2339501517253807e-06     2.1564518307335323e-05    -3.3531041408642348e-04 
    2.5000000000000000e-01    -5.1562500000000000e-01                          3                         50                          0     1.0000000000000000e+00     0.0000000000000000e+00     0.0000000000000000e+00     0.0000000000000000e+00     2.3437500000000000e-02     1.5625000000000000e-02                          1     0.0000000000000000e+00     2.0000000000000000e+00     1.0000000000000000e+00     2.3997112642490189e-28    -4.9508846883713196e-06     2.2147146890609512e-05    -3.1716621549338330e-04 
    2.6562500000000000e-01    -5.1562500000000000e-01                          3                         51                          0     1.0000000000000000e+00     0.0000000000000000e+00     0.0000000000000000e+00     0.0000000000000000e+00     2.3437500000000000e-02     1.5625000000000000e-02                          1     0.0000000000000000e+00     2.0000000000000000e+00     1.0000000000000000e+00     4.7903591922831823e-29    -4.6609080204676160e-06     2.2637480247251855e-05    -2.9858069642800013e-04 
    2.8125000000000000e-01    -5.1562500000000000e-01                          3                         52                          0     1.0000000000000000e+00     0.0000000000000000e+00     0.0000000000000000e+00     0.0000000000000000e+00     2.3437500000000000e-02     1.5625000000000000e-02                          1     0.0000000000000000e+00     2.0000000000000000e+00     1.0000000000000000e+00     8.6729251364776345e-30    -4.3651598200457098e-06     2.3044130508442823e-05    -2.7962691263407139e-04 
    2.9687500000000000e-01    -5.1562500000000000e-01                          3                         53                          0     1.0000000000000000e+00     0.0000000000000000e+00     0.0000000000000000e+00     0.0000000000000000e+00     2.3437500000000000e-02     1.5625000000000000e-02                          1     0.0000000000000000e+00     2.0000000000000000e+00     1.0000000000000000e+00     1.4241362655285980e-30    -4.0646656476274488e-06     2.3375993684381129e-05    -2.6037057183017263e-04 
    3.1250000000000000e-01    -5.1562500000000000e-01                          3                         54                          0     1.0000000000000000e+00     0.0000000000000000e+00     0.0000000000000000e+00     0.0000000000000000e+00     2.3437500000000000e-02     1.5625000000000000e-02                          1     0.0000000000000000e+00     2.0000000000000000e+00     1.0000000000000000e+00     2.1209279907988454e-31    -3.7603349164570931e-06     2.3642013705889351e-05    -2.4086990877063687e-04 
    3.2812500000000000e-01    -5.1562500000000000e-01                          3                         55                          0     1.0000000000000000e+00     0.0000000000000000e+00     0.0000000000000000e+00     0.0000000000000000e+00     2.3437500000000000e-02     1.5625000000000000e-02                          1     0.0000000000000000e+00     2.0000000000000000e+00     1.0000000000000000e+00     2.8647632131622825e-32    -3.4529616946633890e-06     2.3850980641434694e-05    -2.2117574243918239e-04 
    3.4375000000000000e-01    -5.1562500000000000e-01                          3                         56                          0     1.0000000000000000e+00     0.0000000000000000e+00     0.0000000000000000e+00     0.0000000000000000e+00     2.3437500000000000e-02     1.5625000000000000e-02                          1     0.0000000000000000e+00     2.0000000000000000e+00     1.0000000000000000e+00     3.5094573457251888e-33    -3.1432278987820223e-06     2.4011364171230119e-05    -2.0133168574654713e-04 
    3.5937500000000000e-01    -5.1562500000000000e-01                          3                         57                          0     1.0000000000000000e+00     0.0000000000000000e+00     0.0000000000000000e+00     0.0000000000000000e+00     2.3437500000000000e-02     1.5625000000000000e-02                          1     0.0000000000000000e+00     2.0000000000000000e+00     1.0000000000000000e+00     3.8992370196134742e-34    -2.8317084153458347e-06     2.4131183300963143e-05    -1.8137447895279199e-04 